5
CCl3.log	Energy: -890688.6343420
H          0.00003       -0.00001        1.53728
C          0.00006        0.00004        0.45576
Cl        -0.76145        1.51074       -0.08376
Cl        -0.92763       -1.41481       -0.08376
Cl         1.68907       -0.09595       -0.08377
