16
CCtBu.log	Energy: -147283.7869259
H         -3.43159       -0.00005       -0.00001
C         -2.36966        0.00011       -0.00009
C         -1.16916        0.00027       -0.00017
C          0.29722        0.00001        0.00000
C          0.80403       -1.18538        0.84209
H          0.45227       -1.10837        1.87122
H          0.45186       -2.13176        0.43084
H          1.89592       -1.19538        0.84887
C          0.80447       -0.13667       -1.44745
H          1.89636       -0.13793       -1.45909
H          0.45253       -1.06628       -1.89549
H          0.45281        0.69283       -2.06151
C          0.80447        1.32181        0.60552
H          0.45311        2.17464        0.02413
H          0.45220        1.43910        1.63067
H          1.89636        1.33226        0.61093
