19
CCtBu.log	Energy: -171910.9057100
C         -3.25083        0.00000       -0.00001
H         -3.64810        0.67375       -0.76917
C         -1.78837       -0.00010       -0.00013
C         -0.57646       -0.00011       -0.00019
C          0.89641       -0.00002       -0.00002
C          1.41040        0.95448       -1.10071
H          1.05879        0.63627       -2.08799
H          1.05874        1.97685       -0.92546
H          2.50740        0.96156       -1.10882
C          1.41006        0.47613        1.37702
H          2.50706        0.47977        1.38746
H          1.05828        1.49022        1.59492
H          1.05832       -0.18679        2.17479
C          1.41050       -1.43048       -0.27611
H          1.05874       -2.12634        0.49309
H          1.05907       -1.78998       -1.24918
H          2.50750       -1.44102       -0.27793
H         -3.64797        0.32929        0.96809
H         -3.64815       -1.00298       -0.19885
