5
CF3.log	Energy: -212346.9720400
H          0.00020        0.00000        1.42982
C         -0.00013       -0.00001        0.33949
F          0.63389        1.08414       -0.12840
F          0.62218       -1.09089       -0.12840
F         -1.25600        0.00676       -0.12840
