20
CH2CMe3.log	Energy: -148794.4457385
C          2.18576       -0.03652       -0.00002
H          2.27753        0.60338       -0.88490
C         -0.43541        0.00000       -0.00002
C          0.87330       -0.82866       -0.00094
H          0.85815       -1.49090        0.87692
H          0.85817       -1.48891       -0.88029
C         -0.52181        0.88265        1.25794
H         -0.43520        0.27839        2.17023
H          0.26938        1.64040        1.27869
H         -1.48356        1.40937        1.29523
C         -0.52139        0.88615       -1.25552
H         -1.48316        1.41293       -1.29170
H          0.26977        1.64401       -1.27385
H         -0.43438        0.28448       -2.16948
C         -1.62090       -0.98235       -0.00154
H         -1.59824       -1.62980        0.88432
H         -2.57776       -0.44532       -0.00073
H         -1.59820       -1.62706       -0.88940
H          3.04279       -0.72035       -0.00056
H          2.27733        0.60174        0.88608
