5
Cl.log	Energy: -313827.1099857
C         -0.00000       -0.00000       -1.14041
H         -0.00000        1.03441       -1.48564
Cl         0.00000        0.00000        0.66467
H         -0.89583       -0.51721       -1.48564
H          0.89583       -0.51721       -1.48564
