2
Cl.log	Energy: -289178.7413790
H          0.00000        0.00000       -1.21070
Cl         0.00000        0.00000        0.07122
