3
CN.log	Energy:  -58650.6076599
H         -0.00000        0.00000        1.56364
C         -0.00000        0.00000        0.49689
N          0.00000       -0.00000       -0.64928
