5
GeCl3.log	Energy: -2170226.3630207
H          0.00063        0.00000        1.96199
Ge         0.00024        0.00000        0.43608
Cl        -1.00853        1.73786       -0.31202
Cl        -1.00146       -1.74194       -0.31202
Cl         2.00950        0.00408       -0.31223
