11
iPr.log	Energy:  -74800.5199485
H          0.00000        1.24342       -0.87470
C         -0.00000        0.58605        0.00007
C          1.27108       -0.25939       -0.00000
H          1.31256       -0.90418        0.88148
H          1.31235       -0.90438       -0.88132
H          2.16783        0.36315       -0.00018
C         -1.27107       -0.25939       -0.00000
H         -2.16783        0.36315       -0.00018
H         -1.31235       -0.90438       -0.88132
H         -1.31256       -0.90418        0.88148
H          0.00000        1.24379        0.87431
