8
Me.log	Energy:  -50099.7244566
C          0.00000        0.00000        0.76596
H         -0.51083        0.88485        1.16439
H          1.02172       -0.00004        1.16439
H         -0.51089       -0.88482        1.16439
C          0.00000        0.00000       -0.76596
H          0.51083        0.88485       -1.16439
H          0.51089       -0.88482       -1.16439
H         -1.02172       -0.00004       -1.16439
