5
Me.log	Energy:  -25438.8818855
H         -1.08811        0.05122       -0.00024
C         -0.00004       -0.00002        0.00000
H          0.38711        0.49530       -0.88934
H          0.38676        0.49625        0.88896
H          0.31450       -1.04267        0.00062
