5
PCl3.log	Energy: -1080850.2532996
H          0.00029        0.00000        1.83391
P          0.00011        0.00000        0.43678
Cl        -0.92916       -1.61077       -0.16441
Cl        -0.93057        1.60996       -0.16441
Cl         1.85962        0.00081       -0.16446
