15
Ph.log	Energy: -170432.4712587
C         -2.42519       -0.00002        0.01025
H         -2.83332       -0.88665       -0.48732
C         -0.91465       -0.00003       -0.01259
C         -0.19543        1.20323       -0.00963
C         -0.19536       -1.20325       -0.00963
C          1.20147        1.20649        0.00218
H         -0.73583        2.14748       -0.01856
C          1.20155       -1.20645        0.00219
H         -0.73561       -2.14759       -0.01857
C          1.90616        0.00003        0.00904
H          1.73889        2.15139        0.00218
H          1.73893       -2.15137        0.00219
H          2.99282        0.00013        0.01526
H         -2.83332        0.88653       -0.48748
H         -2.80388        0.00009        1.04137
