17
PMe3+.log	Energy: -314279.7027446
C          1.60145       -0.78799        0.32204
H          2.16127       -0.89244       -0.61252
C          0.26845        1.64198       -0.72178
H          0.82214        1.55123       -1.66144
H         -0.69351        2.12442       -0.92078
H          0.84257        2.26531       -0.02927
C         -0.95410       -1.02026       -1.15668
H         -1.92214       -0.55106       -1.35787
H         -0.40786       -1.12731       -2.09897
H         -1.12220       -2.01313       -0.72809
C         -0.91589        0.16627        1.55647
H         -0.34707        0.78096        2.26099
H         -1.88433        0.64123        1.37128
H         -1.08250       -0.82057        1.99930
P          0.00007       -0.00000       -0.00005
H          1.44887       -1.78009        0.75814
H          2.18423       -0.17854        1.01964
