8
SiCl3.log	Energy: -1073158.1606837
C          0.00057        0.00039        2.11169
H         -0.98793       -0.28035        2.49002
Si        -0.00002       -0.00000        0.25566
Cl        -0.47420       -1.87312       -0.46478
Cl        -1.38519        1.34702       -0.46498
Cl         1.85906        0.52587       -0.46540
H          0.25191        0.99717        2.48899
H          0.73837       -0.71528        2.48926
