14
SiMe3.log	Energy: -257257.1804153
H         -0.00009        0.00002        1.86781
Si        -0.00007       -0.00003        0.37884
C          1.04798       -1.43763       -0.22287
H          1.07242       -1.47056       -1.31504
H          2.07755       -1.35223        0.13121
H          0.65134       -2.39178        0.13064
C         -1.76903       -0.18868       -0.22292
H         -2.20984       -1.12317        0.13082
H         -2.39699        0.63175        0.13098
H         -1.80980       -0.19292       -1.31509
C          0.72114        1.62634       -0.22287
H          0.13215        2.47534        0.13068
H          1.74555        1.76004        0.13124
H          0.73812        1.66374       -1.31504
