17
SiMe3.log	Energy: -281891.7856296
C          0.86195        0.50529        1.60641
H          1.84893        0.94237        1.40836
C          1.05607       -1.28174       -0.90600
H          0.58293       -1.59583       -1.84509
H          2.04695       -0.87926       -1.15215
H          1.20562       -2.17982       -0.29324
C         -1.69204       -0.74586        0.39976
H         -1.59535       -1.63350        1.03785
H         -2.33031       -0.02579        0.92751
H         -2.21939       -1.04963       -0.51350
C         -0.22593        1.52233       -1.10016
H         -0.83655        2.28641       -0.60242
H          0.73962        1.98018       -1.35009
H         -0.72376        1.26218       -2.04298
Si        -0.00004       -0.00002        0.00000
H          1.00803       -0.35754        2.26866
H          0.27360        1.25032        2.15701
