8
SnCl3.log	Energy: -1026074.7486132
C         -0.00008       -0.00056        2.35381
H         -0.02141        1.03217        2.69295
Sn        -0.00001        0.00004        0.22017
Cl        -1.89359        1.04375       -0.65107
Cl         0.04291       -2.16158       -0.65143
Cl         1.85074        1.11804       -0.65098
H          0.90504       -0.49868        2.69239
H         -0.88392       -0.53558        2.69232
