14
SnMe3.log	Energy: -210075.9844127
H         -0.00001       -0.00006       -1.96539
Sn        -0.00001       -0.00003       -0.24112
C          1.82960       -0.90316        0.47731
H          1.90840       -1.92975        0.12116
H          2.69239       -0.34079        0.12194
H          1.83675       -0.90723        1.56702
C         -1.69701       -1.13276        0.47733
H         -2.62541       -0.68746        0.12134
H         -1.64163       -2.16111        0.12183
H         -1.70397       -1.13703        1.56705
C         -0.13255        2.03608        0.47725
H          0.71814        2.61704        0.12262
H         -1.05001        2.50282        0.12034
H         -0.13447        2.04424        1.56697
