4ClPh_transform_new_1 0.0                                               
SP        RB3LYP                                                      6-31G(d)            
Number of atoms                            I               12
Info1-9                                    I   N=           9
          21          21           0           0           0         110
           1          18        -502
Full Title                                 C   N=           3
4ClPh_transform_new_1 0.0           
Route                                      C   N=           2
# nosymm b3lyp/6-31G*   
Charge                                     I                0
Multiplicity                               I                1
Number of electrons                        I               58
Number of alpha electrons                  I               29
Number of beta electrons                   I               29
Number of basis functions                  I              119
Number of independent functions            I              119
Number of point charges in /Mol/           I                0
Number of translation vectors              I                0
Atomic numbers                             I   N=          12
           1           6           6           1           6           1
           6          17           6           1           6           1
Nuclear charges                            R   N=          12
  1.00000000E+00  6.00000000E+00  6.00000000E+00  1.00000000E+00  6.00000000E+00
  1.00000000E+00  6.00000000E+00  1.70000000E+01  6.00000000E+00  1.00000000E+00
  6.00000000E+00  1.00000000E+00
Current cartesian coordinates              R   N=          36
  0.00000000E+00  0.00000000E+00  0.00000000E+00  0.00000000E+00  0.00000000E+00
  2.00310969E+00  2.27162088E+00  0.00000000E+00  3.30702072E+00  3.98199310E+00
  0.00000000E+00  2.30546587E+00  2.24488125E+00  0.00000000E+00  5.91484277E+00
  3.98199310E+00  0.00000000E+00  6.91639762E+00  0.00000000E+00  0.00000000E+00
  7.21875380E+00  0.00000000E+00  0.00000000E+00  1.04690827E+01 -2.27160198E+00
  0.00000000E+00  5.91484277E+00 -3.98199310E+00  0.00000000E+00  6.91639762E+00
 -2.27160198E+00  0.00000000E+00  3.30702072E+00 -3.98199310E+00  0.00000000E+00
  2.30546587E+00
Number of symbols in /Mol/                 I                0
Force Field                                I                0
Atom Types                                 C   N=          12
                                                            
                                                            
                        
Int Atom Types                             I   N=          12
           0           0           0           0           0           0
           0           0           0           0           0           0
MM charges                                 R   N=          12
  0.00000000E+00  0.00000000E+00  0.00000000E+00  0.00000000E+00  0.00000000E+00
  0.00000000E+00  0.00000000E+00  0.00000000E+00  0.00000000E+00  0.00000000E+00
  0.00000000E+00  0.00000000E+00
Integer atomic weights                     I   N=          12
           1          12          12           1          12           1
          12          35          12           1          12           1
Real atomic weights                        R   N=          12
  1.00782504E+00  1.20000000E+01  1.20000000E+01  1.00782504E+00  1.20000000E+01
  1.00782504E+00  1.20000000E+01  3.49688527E+01  1.20000000E+01  1.00782504E+00
  1.20000000E+01  1.00782504E+00
Atom fragment info                         I   N=          12
           0           0           0           0           0           0
           0           0           0           0           0           0
Atom residue num                           I   N=          12
           0           0           0           0           0           0
           0           0           0           0           0           0
Nuclear spins                              I   N=          12
           1           0           0           1           0           1
           0           3           0           1           0           1
Nuclear ZEff                               R   N=          12
 -1.00000000E+00 -3.60000000E+00 -3.60000000E+00 -1.00000000E+00 -3.60000000E+00
 -1.00000000E+00 -3.60000000E+00 -1.42400000E+01 -3.60000000E+00 -1.00000000E+00
 -3.60000000E+00 -1.00000000E+00
Nuclear ZNuc                               R   N=          12
  1.00000000E+00  6.00000000E+00  6.00000000E+00  1.00000000E+00  6.00000000E+00
  1.00000000E+00  6.00000000E+00  1.70000000E+01  6.00000000E+00  1.00000000E+00
  6.00000000E+00  1.00000000E+00
Nuclear QMom                               R   N=          12
  0.00000000E+00  0.00000000E+00  0.00000000E+00  0.00000000E+00  0.00000000E+00
  0.00000000E+00  0.00000000E+00 -8.16500000E+00  0.00000000E+00  0.00000000E+00
  0.00000000E+00  0.00000000E+00
Nuclear GFac                               R   N=          12
  2.79284600E+00  0.00000000E+00  0.00000000E+00  2.79284600E+00  0.00000000E+00
  2.79284600E+00  0.00000000E+00  8.21874000E-01  0.00000000E+00  2.79284600E+00
  0.00000000E+00  2.79284600E+00
MicOpt                                     I   N=          12
          -1          -1          -1          -1          -1          -1
          -1          -1          -1          -1          -1          -1
Number of residues                         I                0
Number of secondary structures             I                0
Number of contracted shells                I               39
Number of primitive shells                 I              103
Pure/Cartesian d shells                    I                1
Pure/Cartesian f shells                    I                0
Highest angular momentum                   I                2
Largest degree of contraction              I                6
Shell types                                I   N=          39
           0           0           0          -1          -1           2
           0          -1          -1           2           0           0
           0          -1          -1           2           0           0
           0          -1          -1           2           0          -1
          -1          -1           2           0          -1          -1
           2           0           0           0          -1          -1
           2           0           0
Number of primitives per shell             I   N=          39
           3           1           6           3           1           1
           6           3           1           1           3           1
           6           3           1           1           3           1
           6           3           1           1           6           6
           3           1           1           6           3           1
           1           3           1           6           3           1
           1           3           1
Shell to atom map                          I   N=          39
           1           1           2           2           2           2
           3           3           3           3           4           4
           5           5           5           5           6           6
           7           7           7           7           8           8
           8           8           8           9           9           9
           9          10          10          11          11          11
          11          12          12
Primitive exponents                        R   N=         103
  1.87311370E+01  2.82539436E+00  6.40121692E-01  1.61277759E-01  3.04752488E+03
  4.57369518E+02  1.03948685E+02  2.92101553E+01  9.28666296E+00  3.16392696E+00
  7.86827235E+00  1.88128854E+00  5.44249258E-01  1.68714478E-01  8.00000000E-01
  3.04752488E+03  4.57369518E+02  1.03948685E+02  2.92101553E+01  9.28666296E+00
  3.16392696E+00  7.86827235E+00  1.88128854E+00  5.44249258E-01  1.68714478E-01
  8.00000000E-01  1.87311370E+01  2.82539436E+00  6.40121692E-01  1.61277759E-01
  3.04752488E+03  4.57369518E+02  1.03948685E+02  2.92101553E+01  9.28666296E+00
  3.16392696E+00  7.86827235E+00  1.88128854E+00  5.44249258E-01  1.68714478E-01
  8.00000000E-01  1.87311370E+01  2.82539436E+00  6.40121692E-01  1.61277759E-01
  3.04752488E+03  4.57369518E+02  1.03948685E+02  2.92101553E+01  9.28666296E+00
  3.16392696E+00  7.86827235E+00  1.88128854E+00  5.44249258E-01  1.68714478E-01
  8.00000000E-01  2.51801000E+04  3.78035000E+03  8.60474000E+02  2.42145000E+02
  7.73349000E+01  2.62470000E+01  4.91765000E+02  1.16984000E+02  3.74153000E+01
  1.37834000E+01  5.45215000E+00  2.22588000E+00  3.18649000E+00  1.14427000E+00
  4.20377000E-01  1.42657000E-01  7.50000000E-01  3.04752488E+03  4.57369518E+02
  1.03948685E+02  2.92101553E+01  9.28666296E+00  3.16392696E+00  7.86827235E+00
  1.88128854E+00  5.44249258E-01  1.68714478E-01  8.00000000E-01  1.87311370E+01
  2.82539436E+00  6.40121692E-01  1.61277759E-01  3.04752488E+03  4.57369518E+02
  1.03948685E+02  2.92101553E+01  9.28666296E+00  3.16392696E+00  7.86827235E+00
  1.88128854E+00  5.44249258E-01  1.68714478E-01  8.00000000E-01  1.87311370E+01
  2.82539436E+00  6.40121692E-01  1.61277759E-01
Contraction coefficients                   R   N=         103
  3.34946043E-02  2.34726953E-01  8.13757326E-01  1.00000000E+00  1.83473713E-03
  1.40373228E-02  6.88426223E-02  2.32184443E-01  4.67941348E-01  3.62311985E-01
 -1.19332420E-01 -1.60854152E-01  1.14345644E+00  1.00000000E+00  1.00000000E+00
  1.83473713E-03  1.40373228E-02  6.88426223E-02  2.32184443E-01  4.67941348E-01
  3.62311985E-01 -1.19332420E-01 -1.60854152E-01  1.14345644E+00  1.00000000E+00
  1.00000000E+00  3.34946043E-02  2.34726953E-01  8.13757326E-01  1.00000000E+00
  1.83473713E-03  1.40373228E-02  6.88426223E-02  2.32184443E-01  4.67941348E-01
  3.62311985E-01 -1.19332420E-01 -1.60854152E-01  1.14345644E+00  1.00000000E+00
  1.00000000E+00  3.34946043E-02  2.34726953E-01  8.13757326E-01  1.00000000E+00
  1.83473713E-03  1.40373228E-02  6.88426223E-02  2.32184443E-01  4.67941348E-01
  3.62311985E-01 -1.19332420E-01 -1.60854152E-01  1.14345644E+00  1.00000000E+00
  1.00000000E+00  1.83295985E-03  1.40341988E-02  6.90973943E-02  2.37451980E-01
  4.83033960E-01  3.39855972E-01 -2.29739142E-03 -3.07137189E-02 -1.12528069E-01
  4.50163278E-02  5.89353363E-01  4.65206287E-01 -2.51828028E-01  6.15892514E-02
  1.06018433E+00  1.00000000E+00  1.00000000E+00  1.83473713E-03  1.40373228E-02
  6.88426223E-02  2.32184443E-01  4.67941348E-01  3.62311985E-01 -1.19332420E-01
 -1.60854152E-01  1.14345644E+00  1.00000000E+00  1.00000000E+00  3.34946043E-02
  2.34726953E-01  8.13757326E-01  1.00000000E+00  1.83473713E-03  1.40373228E-02
  6.88426223E-02  2.32184443E-01  4.67941348E-01  3.62311985E-01 -1.19332420E-01
 -1.60854152E-01  1.14345644E+00  1.00000000E+00  1.00000000E+00  3.34946043E-02
  2.34726953E-01  8.13757326E-01  1.00000000E+00
P(S=P) Contraction coefficients            R   N=         103
  0.00000000E+00  0.00000000E+00  0.00000000E+00  0.00000000E+00  0.00000000E+00
  0.00000000E+00  0.00000000E+00  0.00000000E+00  0.00000000E+00  0.00000000E+00
  6.89990666E-02  3.16423961E-01  7.44308291E-01  1.00000000E+00  0.00000000E+00
  0.00000000E+00  0.00000000E+00  0.00000000E+00  0.00000000E+00  0.00000000E+00
  0.00000000E+00  6.89990666E-02  3.16423961E-01  7.44308291E-01  1.00000000E+00
  0.00000000E+00  0.00000000E+00  0.00000000E+00  0.00000000E+00  0.00000000E+00
  0.00000000E+00  0.00000000E+00  0.00000000E+00  0.00000000E+00  0.00000000E+00
  0.00000000E+00  6.89990666E-02  3.16423961E-01  7.44308291E-01  1.00000000E+00
  0.00000000E+00  0.00000000E+00  0.00000000E+00  0.00000000E+00  0.00000000E+00
  0.00000000E+00  0.00000000E+00  0.00000000E+00  0.00000000E+00  0.00000000E+00
  0.00000000E+00  6.89990666E-02  3.16423961E-01  7.44308291E-01  1.00000000E+00
  0.00000000E+00  0.00000000E+00  0.00000000E+00  0.00000000E+00  0.00000000E+00
  0.00000000E+00  0.00000000E+00  3.98940088E-03  3.03177067E-02  1.29880029E-01
  3.27951072E-01  4.53527100E-01  2.52154056E-01 -1.42993147E-02  3.23572333E-01
  7.43507765E-01  1.00000000E+00  0.00000000E+00  0.00000000E+00  0.00000000E+00
  0.00000000E+00  0.00000000E+00  0.00000000E+00  0.00000000E+00  6.89990666E-02
  3.16423961E-01  7.44308291E-01  1.00000000E+00  0.00000000E+00  0.00000000E+00
  0.00000000E+00  0.00000000E+00  0.00000000E+00  0.00000000E+00  0.00000000E+00
  0.00000000E+00  0.00000000E+00  0.00000000E+00  0.00000000E+00  6.89990666E-02
  3.16423961E-01  7.44308291E-01  1.00000000E+00  0.00000000E+00  0.00000000E+00
  0.00000000E+00  0.00000000E+00  0.00000000E+00
Coordinates of each shell                  R   N=         117
  0.00000000E+00  0.00000000E+00  0.00000000E+00  0.00000000E+00  0.00000000E+00
  0.00000000E+00  0.00000000E+00  0.00000000E+00  2.00310969E+00  0.00000000E+00
  0.00000000E+00  2.00310969E+00  0.00000000E+00  0.00000000E+00  2.00310969E+00
  0.00000000E+00  0.00000000E+00  2.00310969E+00  2.27162088E+00  0.00000000E+00
  3.30702072E+00  2.27162088E+00  0.00000000E+00  3.30702072E+00  2.27162088E+00
  0.00000000E+00  3.30702072E+00  2.27162088E+00  0.00000000E+00  3.30702072E+00
  3.98199310E+00  0.00000000E+00  2.30546587E+00  3.98199310E+00  0.00000000E+00
  2.30546587E+00  2.24488125E+00  0.00000000E+00  5.91484277E+00  2.24488125E+00
  0.00000000E+00  5.91484277E+00  2.24488125E+00  0.00000000E+00  5.91484277E+00
  2.24488125E+00  0.00000000E+00  5.91484277E+00  3.98199310E+00  0.00000000E+00
  6.91639762E+00  3.98199310E+00  0.00000000E+00  6.91639762E+00  0.00000000E+00
  0.00000000E+00  7.21875380E+00  0.00000000E+00  0.00000000E+00  7.21875380E+00
  0.00000000E+00  0.00000000E+00  7.21875380E+00  0.00000000E+00  0.00000000E+00
  7.21875380E+00  0.00000000E+00  0.00000000E+00  1.04690827E+01  0.00000000E+00
  0.00000000E+00  1.04690827E+01  0.00000000E+00  0.00000000E+00  1.04690827E+01
  0.00000000E+00  0.00000000E+00  1.04690827E+01  0.00000000E+00  0.00000000E+00
  1.04690827E+01 -2.27160198E+00  0.00000000E+00  5.91484277E+00 -2.27160198E+00
  0.00000000E+00  5.91484277E+00 -2.27160198E+00  0.00000000E+00  5.91484277E+00
 -2.27160198E+00  0.00000000E+00  5.91484277E+00 -3.98199310E+00  0.00000000E+00
  6.91639762E+00 -3.98199310E+00  0.00000000E+00  6.91639762E+00 -2.27160198E+00
  0.00000000E+00  3.30702072E+00 -2.27160198E+00  0.00000000E+00  3.30702072E+00
 -2.27160198E+00  0.00000000E+00  3.30702072E+00 -2.27160198E+00  0.00000000E+00
  3.30702072E+00 -3.98199310E+00  0.00000000E+00  2.30546587E+00 -3.98199310E+00
  0.00000000E+00  2.30546587E+00
Num ILSW                                   I              100
ILSW                                       I   N=         100
           0           1           0           0           2           0
           0           0           0           0         402          -1
           5           0           0           0           0           0
           0           0           1           0           0           0
           1           1           0           0           0           0
           0           0      100000           0          -1           0
           0           0           0           0           0           0
           0           0           0           1           0           0
           0 -2000000000           1           0           0           0
           0           0           4          52           0           0
           0           0           5           0           0           0
           0           0           0           0           0           1
           0           0           0           0           0           0
           0           0           0           0           0           0
           0           0           0           0           0           0
           0           0           0           0           0           0
           0           0           0           0
Num RLSW                                   I               52
RLSW                                       R   N=          52
  8.00000000E-01  7.20000000E-01  1.00000000E+00  8.10000000E-01  2.00000000E-01
  0.00000000E+00  0.00000000E+00  1.00000000E+00  0.00000000E+00  0.00000000E+00
  0.00000000E+00  0.00000000E+00  1.00000000E+00  0.00000000E+00  0.00000000E+00
  0.00000000E+00  0.00000000E+00  1.00000000E+00  0.00000000E+00  0.00000000E+00
  0.00000000E+00  0.00000000E+00  1.00000000E+00  0.00000000E+00  0.00000000E+00
  0.00000000E+00  0.00000000E+00  1.00000000E+00  0.00000000E+00  0.00000000E+00
  0.00000000E+00  0.00000000E+00  1.00000000E+00  0.00000000E+00  0.00000000E+00
  0.00000000E+00  0.00000000E+00  0.00000000E+00  1.00000000E+00  1.00000000E+00
  0.00000000E+00  1.00000000E+00  0.00000000E+00  0.00000000E+00  0.00000000E+00
  0.00000000E+00  0.00000000E+00  0.00000000E+00  0.00000000E+00  0.00000000E+00
  0.00000000E+00  0.00000000E+00
MxBond                                     I                3
NBond                                      I   N=          12
           1           3           3           1           3           1
           3           1           3           1           3           1
IBond                                      I   N=          36
           2           0           0           1           3          11
           2           4           5           3           0           0
           3           6           7           5           0           0
           5           8           9           7           0           0
           7          10          11           9           0           0
           2           9          12          11           0           0
RBond                                      R   N=          36
  1.00000000E+00  0.00000000E+00  0.00000000E+00  1.00000000E+00  1.50000000E+00
  1.50000000E+00  1.50000000E+00  1.00000000E+00  1.50000000E+00  1.00000000E+00
  0.00000000E+00  0.00000000E+00  1.50000000E+00  1.00000000E+00  1.50000000E+00
  1.00000000E+00  0.00000000E+00  0.00000000E+00  1.50000000E+00  1.00000000E+00
  1.50000000E+00  1.00000000E+00  0.00000000E+00  0.00000000E+00  1.50000000E+00
  1.00000000E+00  1.50000000E+00  1.00000000E+00  0.00000000E+00  0.00000000E+00
  1.50000000E+00  1.50000000E+00  1.00000000E+00  1.00000000E+00  0.00000000E+00
  0.00000000E+00
Virial Ratio                               R      2.004653530859870E+00
SCF Energy                                 R     -6.918389325434662E+02
Total Energy                               R     -6.918389325434662E+02
RMS Density                                R      9.028091703838812E-09
Job Status                                 I                1
Nuclear derivative order                   I                0
External E-field                           R   N=          35
  0.00000000E+00  0.00000000E+00  0.00000000E+00  0.00000000E+00  0.00000000E+00
  0.00000000E+00  0.00000000E+00  0.00000000E+00  0.00000000E+00  0.00000000E+00
  0.00000000E+00  0.00000000E+00  0.00000000E+00  0.00000000E+00  0.00000000E+00
  0.00000000E+00  0.00000000E+00  0.00000000E+00  0.00000000E+00  0.00000000E+00
  0.00000000E+00  0.00000000E+00  0.00000000E+00  0.00000000E+00  0.00000000E+00
  0.00000000E+00  0.00000000E+00  0.00000000E+00  0.00000000E+00  0.00000000E+00
  0.00000000E+00  0.00000000E+00  0.00000000E+00  0.00000000E+00  0.00000000E+00
IOpCl                                      I                0
IROHF                                      I                0
Alpha Orbital Energies                     R   N=         119
 -1.01548049E+02 -1.02464191E+01 -1.01954421E+01 -1.01952860E+01 -1.01941114E+01
 -1.01939535E+01 -1.01915701E+01 -9.46503914E+00 -7.22886606E+00 -7.21931311E+00
 -7.21895888E+00 -8.98396818E-01 -8.41160493E-01 -7.63009374E-01 -7.36084010E-01
 -6.25041059E-01 -6.05118368E-01 -5.32989648E-01 -4.75999840E-01 -4.69335820E-01
 -4.38333084E-01 -4.35762345E-01 -3.98885325E-01 -3.66067998E-01 -3.62377428E-01
 -3.34821611E-01 -3.12174500E-01 -2.63016090E-01 -2.44625015E-01 -8.66507230E-03
 -6.75711572E-03  4.29660771E-02  1.15226101E-01  1.44255841E-01  1.53783032E-01
  1.65693672E-01  1.88730937E-01  1.88950730E-01  2.70136179E-01  2.88223818E-01
  2.97938696E-01  3.04322976E-01  4.04195121E-01  4.19710116E-01  4.23632260E-01
  4.43488330E-01  4.72576450E-01  5.21301378E-01  5.38564639E-01  5.68722522E-01
  5.86458809E-01  5.87410938E-01  5.97156668E-01  6.03979258E-01  6.07546231E-01
  6.07877606E-01  6.17049240E-01  6.53612821E-01  6.56264344E-01  7.31533330E-01
  7.63593135E-01  8.24365575E-01  8.50314419E-01  8.52182530E-01  8.68757844E-01
  8.72528884E-01  8.72557812E-01  9.18294035E-01  9.29754760E-01  9.40733718E-01
  9.56298826E-01  9.67616332E-01  1.03364588E+00  1.07492385E+00  1.11995893E+00
  1.12525955E+00  1.15237375E+00  1.22652953E+00  1.24314834E+00  1.35480393E+00
  1.39686465E+00  1.43751767E+00  1.45112035E+00  1.47062407E+00  1.48696922E+00
  1.49836217E+00  1.56275920E+00  1.76260766E+00  1.79762083E+00  1.85736263E+00
  1.91641888E+00  2.00750740E+00  2.01578683E+00  2.07907676E+00  2.09073939E+00
  2.14442141E+00  2.14680286E+00  2.15332513E+00  2.17170463E+00  2.29852828E+00
  2.31087228E+00  2.32512455E+00  2.53575640E+00  2.58054705E+00  2.66610195E+00
  2.70731992E+00  2.72028095E+00  2.72984526E+00  2.75448508E+00  2.78617304E+00
  3.02164160E+00  3.43355630E+00  4.07117589E+00  4.10283136E+00  4.11425323E+00
  4.25679624E+00  4.32586284E+00  4.37064579E+00  4.67255914E+00
Alpha MO coefficients                      R   N=       14161
 -3.03386090E-06 -1.66143315E-05  4.39970768E-07  5.95652933E-06  1.74539540E-07
 -9.75036153E-17 -3.41668830E-06 -1.07109205E-04  1.85504317E-06  4.74257258E-16
 -7.06291586E-05 -4.02639899E-06 -4.53737500E-07 -1.90559762E-06  2.19415783E-16
  1.61068504E-07 -2.21629439E-17 -2.75211014E-06 -1.19399102E-05  4.55236398E-06
  5.68186873E-16 -2.55809583E-06  6.14673143E-05 -7.72459316E-05 -9.86859095E-16
  4.07716011E-05 -4.26578837E-06 -8.69668785E-06  8.00370640E-06  3.69917203E-16
  5.93089562E-06 -2.23424037E-16  5.84993651E-06  3.66032023E-05 -9.10294827E-07
  1.41112441E-05  2.20554009E-06 -2.48343620E-16 -1.34863653E-05 -3.10648140E-05
  2.62560343E-05  6.29098830E-16 -3.78718086E-05  5.59905518E-06 -1.09876957E-05
 -3.59856019E-05  4.35708458E-17  2.52648966E-05  3.29715991E-16  1.46822986E-06
 -3.76859189E-05  4.41200951E-06  1.12687108E-04  3.69301631E-07 -9.86430563E-17
  3.84819856E-05  3.86649683E-05 -2.17333743E-06 -4.35683766E-16  1.12787331E-04
  3.69262964E-05 -1.27101694E-05 -8.84944064E-05 -1.39067527E-16  2.74901302E-07
  2.31689465E-16  9.95997805E-01  1.51692783E-02 -2.28171245E-08  2.63826255E-16
 -5.35033306E-05 -2.10419703E-02  1.04313756E-07  4.98828233E-17  4.28452222E-05
  1.52754250E-03  4.15663280E-08 -9.65036519E-17  2.93778557E-06  7.56825579E-03
  7.56534337E-03  7.56171352E-03  2.95161041E-16 -4.16629457E-08 -1.70858173E-16
 -8.81720488E-07  1.49870932E-05 -2.39165620E-06 -2.42520359E-16 -1.29976527E-05
 -3.25934730E-05 -3.11598046E-05  7.04289184E-16 -3.93276456E-05  4.56263134E-06
 -1.09245230E-05 -3.55139030E-05  6.13846496E-17 -2.50842731E-05 -3.99744985E-16
  1.33605053E-06 -3.94224667E-05 -2.82180925E-06 -1.22933541E-05 -4.83483158E-06
 -7.44158251E-17 -2.76049369E-06  6.38461763E-05  8.20874065E-05 -5.42651410E-16
  3.92623925E-05 -3.96361052E-06 -8.88461154E-06  7.56515043E-06 -1.88663105E-16
 -6.06841978E-06 -1.74552205E-16  6.04200261E-06  3.79495343E-05  4.33726458E-05
  4.78036131E-04 -9.89179014E-05 -2.04800912E-04  6.31404536E-08 -1.31664552E-16
 -6.80661312E-06  3.35352843E-03  1.18160943E-05 -1.62639981E-16  1.92903323E-03
  1.03234109E-05 -6.69760272E-05 -2.87761637E-06 -1.55181868E-17  9.78725026E-08
  1.61860551E-16  7.46714624E-05  1.13938864E-04 -1.33221853E-05  4.20630074E-17
  1.10647946E-05 -3.12404635E-03  1.90596190E-03  4.28505663E-16 -8.49022923E-04
  2.95330463E-05  5.61385721E-05  1.03689842E-04  5.92697926E-16 -3.08501563E-05
  3.07779096E-16 -7.44036154E-05 -4.68476166E-04  6.00089084E-03 -3.24739760E-04
  2.88081643E-04  5.87288746E-16 -1.39690428E-04  7.19357530E-03 -3.14007468E-03
 -6.82221475E-16  1.87052588E-04 -3.13906191E-04 -2.31599165E-04 -3.46528175E-04
 -2.34029085E-16  7.78123970E-05  2.83615151E-16 -1.26542452E-05  2.48369165E-04
  9.92818267E-01  4.96262754E-02  2.26066881E-05  1.70718246E-16  7.08246977E-04
 -1.87734333E-02 -6.86017822E-05 -1.18378452E-16  1.35258038E-03 -9.01791327E-03
 -9.42054836E-03 -9.34457311E-03 -2.84460160E-16 -1.40438023E-05  1.16901667E-16
 -1.73423018E-05 -1.12071722E-05 -3.77036619E-07  1.85606026E-16 -4.95923398E-05
  1.10523131E-04  1.97462514E-06 -1.42282213E-17  6.97200555E-05  2.72490150E-03
  3.56902040E-06  7.16356764E-17 -1.70468870E-03 -2.26933979E-04 -1.30695156E-04
 -4.10756114E-04 -7.06268749E-17 -2.07372373E-06 -4.07861646E-16  5.50724092E-03
 -3.25829360E-04 -2.79932567E-04  1.76806298E-17 -1.30388417E-04  7.04321026E-03
  3.10536585E-03 -9.24589788E-17  8.82946352E-05 -3.20000154E-04 -2.26568936E-04
 -3.37777349E-04  5.15786069E-16 -8.71287841E-05 -5.27590578E-16 -1.02004349E-05
  2.70028006E-04  7.19031866E-05  1.15617512E-04  1.38772436E-05 -2.33342473E-16
  8.22998177E-06 -3.17338821E-03 -1.88390732E-03  6.66310856E-17 -8.88198171E-04
  3.09993909E-05  5.65505695E-05  1.00096047E-04 -3.04895727E-16  2.79771679E-05
 -5.14425767E-16 -7.24733111E-05 -4.63576891E-04 -6.54605179E-05 -2.99682887E-04
  1.58909675E-02  7.75571565E-04  9.10139814E-05  5.82658135E-16 -6.50648272E-05
 -2.93895201E-03 -2.81145783E-04 -1.25746332E-15 -1.74356701E-03 -1.84993773E-04
 -1.56123910E-04 -1.24895245E-04 -9.27647939E-16 -2.79942545E-05  4.88064741E-16
 -2.82043682E-03 -3.67749106E-04  3.42972243E-05  3.71977072E-16 -9.13072899E-06
  3.23328696E-03 -1.70994266E-03  1.30471853E-15  9.71621905E-04  3.74316531E-05
 -5.64911247E-05  3.40149165E-05 -6.71828511E-16  1.64563450E-05  2.92139611E-16
  5.10009164E-05  5.40615669E-04 -1.53374842E-02 -7.32966012E-04  3.55187393E-05
 -5.79649095E-16 -5.58593146E-07 -3.30375458E-03  1.74166989E-03 -8.14975867E-16
  1.18894160E-03  2.43508780E-04  1.64199510E-04  1.90206954E-04  6.91396543E-16
 -2.00753091E-05  1.18704835E-15 -5.13732799E-05 -4.65940095E-04 -5.73337692E-03
 -8.76329414E-04  3.03736466E-04 -2.63825894E-16  2.66630801E-04  8.34259818E-03
 -1.91484747E-03  1.34800191E-15 -4.00090789E-03 -3.54426822E-04 -1.29152263E-04
 -1.68168843E-04  3.53411067E-16 -6.38910349E-05 -7.50663890E-16 -4.06102696E-07
 -5.81780578E-06 -6.38100494E-06  1.12384898E-15  9.28102495E-06 -4.98443745E-05
  4.52577960E-05  3.31077375E-16 -4.31523758E-05  8.22900182E-04  8.18676237E-05
 -3.60411943E-16 -4.38789364E-04  9.07359624E-06 -3.60348431E-05  4.36595163E-05
 -1.02204367E-15 -1.47969947E-05  3.61104493E-16  9.70208182E-01  4.89586619E-02
  2.76506424E-04  4.20275104E-16  1.36206624E-05 -1.79992977E-02 -4.13668792E-03
 -7.29212795E-16  1.68464238E-03 -9.15600620E-03 -9.47833846E-03 -9.13112447E-03
 -2.73301084E-16  3.69031077E-05 -1.11943673E-15 -4.82600856E-04  9.32530312E-04
  2.08678367E-01  9.85539424E-03 -4.39756468E-05 -6.52180703E-16 -2.97115292E-04
  5.06917265E-03  2.29624507E-03  7.21667595E-16  2.87882347E-03 -2.19702130E-03
 -2.23623023E-03 -2.36033002E-03 -6.76506098E-16  3.85324305E-05 -7.11341544E-16
 -4.32427058E-05  1.14717597E-03 -6.45566602E-05 -2.39497617E-04  2.17859773E-02
  1.02898598E-03 -1.00281035E-04 -3.22645338E-16 -7.86620945E-05 -2.57021539E-03
  3.34273496E-04  2.66849083E-16 -1.53053422E-03 -2.62501830E-04 -2.26438650E-04
 -1.94437207E-04 -1.19241569E-16  2.38853458E-05 -1.10195369E-16  2.64827662E-01
  1.26878762E-02  4.12413055E-05  2.62182549E-16 -2.83172319E-04  3.96782789E-03
 -2.15386126E-03 -5.73192556E-16  2.70007571E-03 -2.72067557E-03 -2.78355919E-03
 -2.88321077E-03  2.37173196E-16 -4.50467833E-05 -3.57979950E-16 -7.06375433E-05
  1.22865147E-03  9.56263355E-01  4.82314791E-02 -3.06984434E-04 -7.58385351E-18
  3.04642267E-05 -1.74525015E-02  4.02971346E-03  9.70115705E-16  1.48559135E-03
 -9.03769869E-03 -9.35872260E-03 -9.02327384E-03 -4.85374449E-16 -7.67133297E-05
 -7.25746124E-16 -4.54736916E-04  9.24005017E-04 -6.33386549E-03 -9.34994361E-04
 -3.03921067E-04  2.00321318E-16  2.80683752E-04  8.35757166E-03  1.83519492E-03
 -2.84166984E-16 -3.98882438E-03 -3.51790362E-04 -1.25743495E-04 -1.61045081E-04
 -4.09114767E-16  5.23159290E-05 -5.30453648E-16 -4.91979720E-07 -7.36159081E-06
  5.78023821E-06  5.93299099E-16  9.48796180E-06 -5.63519478E-05 -4.20940078E-05
  8.98200136E-17 -4.27599161E-05  8.40498937E-04 -7.42814346E-05 -4.85559148E-18
 -4.50950202E-04  7.45474941E-06 -3.91696483E-05  4.53470181E-05  1.72750865E-16
  1.12203055E-05 -1.01936635E-16  1.43138941E-02  7.47765212E-04 -3.00988849E-05
  6.79973963E-17  1.00987756E-06 -3.53786622E-03 -1.73230164E-03 -3.78846410E-16
  1.14555274E-03 -3.79371388E-05 -1.30125197E-04 -9.13254398E-05 -8.73326082E-16
  2.23989443E-05  6.15640653E-16 -6.12206302E-05 -4.10437890E-04  5.58902205E-03
  3.97160608E-05 -4.04709397E-05  3.86710084E-16 -1.52823259E-05  3.08660962E-03
  1.63112366E-03  3.11102762E-16  9.73454972E-04 -4.39631275E-05 -1.42658971E-04
 -5.65833284E-05  7.84520143E-16 -1.47409380E-05  6.79917391E-16  4.37055768E-05
  5.41452461E-04  1.48769378E-05  1.31478958E-03  1.35089454E-01  6.01008581E-03
 -1.73781466E-04  1.27617449E-16 -2.15288404E-04  9.39553489E-03  1.13207541E-03
 -3.67541760E-16  5.18709198E-03 -1.74142853E-03 -1.56127830E-03 -1.57671292E-03
  1.04693912E-16 -5.63280896E-05 -2.80906180E-16  9.23304845E-01  4.67624100E-02
 -1.15404011E-04  3.83024721E-17  2.52399922E-04 -2.10486526E-02  5.10958877E-03
 -4.44848389E-16 -3.62636452E-03 -8.61178097E-03 -8.91742572E-03 -8.50591010E-03
 -8.66771096E-16  3.05801281E-05  9.96195577E-17 -5.19257833E-04  4.91093397E-04
 -2.59737841E-01 -1.38344917E-02  1.42453474E-04 -4.50294448E-16  3.65854186E-04
  1.48661393E-02 -4.40297848E-03  1.05702785E-15 -4.05534820E-03  2.20583435E-03