4MeOPh_transform_new_1 0.0                                              
SP        RB3LYP                                                      6-31G(d)            
Number of atoms                            I               16
Info1-9                                    I   N=           9
          25          25           0           0           0         110
           1          18        -502
Full Title                                 C   N=           3
4MeOPh_transform_new_1 0.0          
Route                                      C   N=           2
# nosymm b3lyp/6-31G*   
Charge                                     I                0
Multiplicity                               I                1
Number of electrons                        I               58
Number of alpha electrons                  I               29
Number of beta electrons                   I               29
Number of basis functions                  I              136
Number of independent functions            I              136
Number of point charges in /Mol/           I                0
Number of translation vectors              I                0
Atomic numbers                             I   N=          16
           1           6           6           1           6           1
           6           8           6           1           1           1
           6           1           6           1
Nuclear charges                            R   N=          16
  1.00000000E+00  6.00000000E+00  6.00000000E+00  1.00000000E+00  6.00000000E+00
  1.00000000E+00  6.00000000E+00  8.00000000E+00  6.00000000E+00  1.00000000E+00
  1.00000000E+00  1.00000000E+00  6.00000000E+00  1.00000000E+00  6.00000000E+00
  1.00000000E+00
Current cartesian coordinates              R   N=          48
  0.00000000E+00  0.00000000E+00  0.00000000E+00  0.00000000E+00  0.00000000E+00
  2.00310969E+00  2.27160198E+00  0.00000000E+00  3.30702072E+00  3.98199310E+00
  0.00000000E+00  2.30546587E+00  2.24488125E+00  0.00000000E+00  5.91484277E+00
  3.98199310E+00  0.00000000E+00  6.91639762E+00  0.00000000E+00  0.00000000E+00
  7.21875380E+00  0.00000000E+00  0.00000000E+00  9.84547311E+00  2.53886595E+00
  0.00000000E+00  1.07714389E+01  2.51212632E+00  0.00000000E+00  1.28501376E+01
  3.51430478E+00 -1.69703075E+00  1.00911375E+01  3.51430478E+00  1.69703075E+00
  1.00911375E+01 -2.27160198E+00  0.00000000E+00  5.91484277E+00 -3.98199310E+00
  0.00000000E+00  6.91639762E+00 -2.27160198E+00  0.00000000E+00  3.30702072E+00
 -3.98199310E+00  0.00000000E+00  2.30546587E+00
Number of symbols in /Mol/                 I                0
Force Field                                I                0
Atom Types                                 C   N=          16
                                                            
                                                            
                                                            
            
Int Atom Types                             I   N=          16
           0           0           0           0           0           0
           0           0           0           0           0           0
           0           0           0           0
MM charges                                 R   N=          16
  0.00000000E+00  0.00000000E+00  0.00000000E+00  0.00000000E+00  0.00000000E+00
  0.00000000E+00  0.00000000E+00  0.00000000E+00  0.00000000E+00  0.00000000E+00
  0.00000000E+00  0.00000000E+00  0.00000000E+00  0.00000000E+00  0.00000000E+00
  0.00000000E+00
Integer atomic weights                     I   N=          16
           1          12          12           1          12           1
          12          16          12           1           1           1
          12           1          12           1
Real atomic weights                        R   N=          16
  1.00782504E+00  1.20000000E+01  1.20000000E+01  1.00782504E+00  1.20000000E+01
  1.00782504E+00  1.20000000E+01  1.59949146E+01  1.20000000E+01  1.00782504E+00
  1.00782504E+00  1.00782504E+00  1.20000000E+01  1.00782504E+00  1.20000000E+01
  1.00782504E+00
Atom fragment info                         I   N=          16
           0           0           0           0           0           0
           0           0           0           0           0           0
           0           0           0           0
Atom residue num                           I   N=          16
           0           0           0           0           0           0
           0           0           0           0           0           0
           0           0           0           0
Nuclear spins                              I   N=          16
           1           0           0           1           0           1
           0           0           0           1           1           1
           0           1           0           1
Nuclear ZEff                               R   N=          16
 -1.00000000E+00 -3.60000000E+00 -3.60000000E+00 -1.00000000E+00 -3.60000000E+00
 -1.00000000E+00 -3.60000000E+00 -5.60000000E+00 -3.60000000E+00 -1.00000000E+00
 -1.00000000E+00 -1.00000000E+00 -3.60000000E+00 -1.00000000E+00 -3.60000000E+00
 -1.00000000E+00
Nuclear ZNuc                               R   N=          16
  1.00000000E+00  6.00000000E+00  6.00000000E+00  1.00000000E+00  6.00000000E+00
  1.00000000E+00  6.00000000E+00  8.00000000E+00  6.00000000E+00  1.00000000E+00
  1.00000000E+00  1.00000000E+00  6.00000000E+00  1.00000000E+00  6.00000000E+00
  1.00000000E+00
Nuclear QMom                               R   N=          16
  0.00000000E+00  0.00000000E+00  0.00000000E+00  0.00000000E+00  0.00000000E+00
  0.00000000E+00  0.00000000E+00  0.00000000E+00  0.00000000E+00  0.00000000E+00
  0.00000000E+00  0.00000000E+00  0.00000000E+00  0.00000000E+00  0.00000000E+00
  0.00000000E+00
Nuclear GFac                               R   N=          16
  2.79284600E+00  0.00000000E+00  0.00000000E+00  2.79284600E+00  0.00000000E+00
  2.79284600E+00  0.00000000E+00  0.00000000E+00  0.00000000E+00  2.79284600E+00
  2.79284600E+00  2.79284600E+00  0.00000000E+00  2.79284600E+00  0.00000000E+00
  2.79284600E+00
MicOpt                                     I   N=          16
          -1          -1          -1          -1          -1          -1
          -1          -1          -1          -1          -1          -1
          -1          -1          -1          -1
Number of residues                         I                0
Number of secondary structures             I                0
Number of contracted shells                I               48
Number of primitive shells                 I              120
Pure/Cartesian d shells                    I                1
Pure/Cartesian f shells                    I                0
Highest angular momentum                   I                2
Largest degree of contraction              I                6
Shell types                                I   N=          48
           0           0           0          -1          -1           2
           0          -1          -1           2           0           0
           0          -1          -1           2           0           0
           0          -1          -1           2           0          -1
          -1           2           0          -1          -1           2
           0           0           0           0           0           0
           0          -1          -1           2           0           0
           0          -1          -1           2           0           0
Number of primitives per shell             I   N=          48
           3           1           6           3           1           1
           6           3           1           1           3           1
           6           3           1           1           3           1
           6           3           1           1           6           3
           1           1           6           3           1           1
           3           1           3           1           3           1
           6           3           1           1           3           1
           6           3           1           1           3           1
Shell to atom map                          I   N=          48
           1           1           2           2           2           2
           3           3           3           3           4           4
           5           5           5           5           6           6
           7           7           7           7           8           8
           8           8           9           9           9           9
          10          10          11          11          12          12
          13          13          13          13          14          14
          15          15          15          15          16          16
Primitive exponents                        R   N=         120
  1.87311370E+01  2.82539436E+00  6.40121692E-01  1.61277759E-01  3.04752488E+03
  4.57369518E+02  1.03948685E+02  2.92101553E+01  9.28666296E+00  3.16392696E+00
  7.86827235E+00  1.88128854E+00  5.44249258E-01  1.68714478E-01  8.00000000E-01
  3.04752488E+03  4.57369518E+02  1.03948685E+02  2.92101553E+01  9.28666296E+00
  3.16392696E+00  7.86827235E+00  1.88128854E+00  5.44249258E-01  1.68714478E-01
  8.00000000E-01  1.87311370E+01  2.82539436E+00  6.40121692E-01  1.61277759E-01
  3.04752488E+03  4.57369518E+02  1.03948685E+02  2.92101553E+01  9.28666296E+00
  3.16392696E+00  7.86827235E+00  1.88128854E+00  5.44249258E-01  1.68714478E-01
  8.00000000E-01  1.87311370E+01  2.82539436E+00  6.40121692E-01  1.61277759E-01
  3.04752488E+03  4.57369518E+02  1.03948685E+02  2.92101553E+01  9.28666296E+00
  3.16392696E+00  7.86827235E+00  1.88128854E+00  5.44249258E-01  1.68714478E-01
  8.00000000E-01  5.48467166E+03  8.25234946E+02  1.88046958E+02  5.29645000E+01
  1.68975704E+01  5.79963534E+00  1.55396162E+01  3.59993359E+00  1.01376175E+00
  2.70005823E-01  8.00000000E-01  3.04752488E+03  4.57369518E+02  1.03948685E+02
  2.92101553E+01  9.28666296E+00  3.16392696E+00  7.86827235E+00  1.88128854E+00
  5.44249258E-01  1.68714478E-01  8.00000000E-01  1.87311370E+01  2.82539436E+00
  6.40121692E-01  1.61277759E-01  1.87311370E+01  2.82539436E+00  6.40121692E-01
  1.61277759E-01  1.87311370E+01  2.82539436E+00  6.40121692E-01  1.61277759E-01
  3.04752488E+03  4.57369518E+02  1.03948685E+02  2.92101553E+01  9.28666296E+00
  3.16392696E+00  7.86827235E+00  1.88128854E+00  5.44249258E-01  1.68714478E-01
  8.00000000E-01  1.87311370E+01  2.82539436E+00  6.40121692E-01  1.61277759E-01
  3.04752488E+03  4.57369518E+02  1.03948685E+02  2.92101553E+01  9.28666296E+00
  3.16392696E+00  7.86827235E+00  1.88128854E+00  5.44249258E-01  1.68714478E-01
  8.00000000E-01  1.87311370E+01  2.82539436E+00  6.40121692E-01  1.61277759E-01
Contraction coefficients                   R   N=         120
  3.34946043E-02  2.34726953E-01  8.13757326E-01  1.00000000E+00  1.83473713E-03
  1.40373228E-02  6.88426223E-02  2.32184443E-01  4.67941348E-01  3.62311985E-01
 -1.19332420E-01 -1.60854152E-01  1.14345644E+00  1.00000000E+00  1.00000000E+00
  1.83473713E-03  1.40373228E-02  6.88426223E-02  2.32184443E-01  4.67941348E-01
  3.62311985E-01 -1.19332420E-01 -1.60854152E-01  1.14345644E+00  1.00000000E+00
  1.00000000E+00  3.34946043E-02  2.34726953E-01  8.13757326E-01  1.00000000E+00
  1.83473713E-03  1.40373228E-02  6.88426223E-02  2.32184443E-01  4.67941348E-01
  3.62311985E-01 -1.19332420E-01 -1.60854152E-01  1.14345644E+00  1.00000000E+00
  1.00000000E+00  3.34946043E-02  2.34726953E-01  8.13757326E-01  1.00000000E+00
  1.83473713E-03  1.40373228E-02  6.88426223E-02  2.32184443E-01  4.67941348E-01
  3.62311985E-01 -1.19332420E-01 -1.60854152E-01  1.14345644E+00  1.00000000E+00
  1.00000000E+00  1.83107443E-03  1.39501722E-02  6.84450781E-02  2.32714336E-01
  4.70192898E-01  3.58520853E-01 -1.10777550E-01 -1.48026263E-01  1.13076702E+00
  1.00000000E+00  1.00000000E+00  1.83473713E-03  1.40373228E-02  6.88426223E-02
  2.32184443E-01  4.67941348E-01  3.62311985E-01 -1.19332420E-01 -1.60854152E-01
  1.14345644E+00  1.00000000E+00  1.00000000E+00  3.34946043E-02  2.34726953E-01
  8.13757326E-01  1.00000000E+00  3.34946043E-02  2.34726953E-01  8.13757326E-01
  1.00000000E+00  3.34946043E-02  2.34726953E-01  8.13757326E-01  1.00000000E+00
  1.83473713E-03  1.40373228E-02  6.88426223E-02  2.32184443E-01  4.67941348E-01
  3.62311985E-01 -1.19332420E-01 -1.60854152E-01  1.14345644E+00  1.00000000E+00
  1.00000000E+00  3.34946043E-02  2.34726953E-01  8.13757326E-01  1.00000000E+00
  1.83473713E-03  1.40373228E-02  6.88426223E-02  2.32184443E-01  4.67941348E-01
  3.62311985E-01 -1.19332420E-01 -1.60854152E-01  1.14345644E+00  1.00000000E+00
  1.00000000E+00  3.34946043E-02  2.34726953E-01  8.13757326E-01  1.00000000E+00
P(S=P) Contraction coefficients            R   N=         120
  0.00000000E+00  0.00000000E+00  0.00000000E+00  0.00000000E+00  0.00000000E+00
  0.00000000E+00  0.00000000E+00  0.00000000E+00  0.00000000E+00  0.00000000E+00
  6.89990666E-02  3.16423961E-01  7.44308291E-01  1.00000000E+00  0.00000000E+00
  0.00000000E+00  0.00000000E+00  0.00000000E+00  0.00000000E+00  0.00000000E+00
  0.00000000E+00  6.89990666E-02  3.16423961E-01  7.44308291E-01  1.00000000E+00
  0.00000000E+00  0.00000000E+00  0.00000000E+00  0.00000000E+00  0.00000000E+00
  0.00000000E+00  0.00000000E+00  0.00000000E+00  0.00000000E+00  0.00000000E+00
  0.00000000E+00  6.89990666E-02  3.16423961E-01  7.44308291E-01  1.00000000E+00
  0.00000000E+00  0.00000000E+00  0.00000000E+00  0.00000000E+00  0.00000000E+00
  0.00000000E+00  0.00000000E+00  0.00000000E+00  0.00000000E+00  0.00000000E+00
  0.00000000E+00  6.89990666E-02  3.16423961E-01  7.44308291E-01  1.00000000E+00
  0.00000000E+00  0.00000000E+00  0.00000000E+00  0.00000000E+00  0.00000000E+00
  0.00000000E+00  0.00000000E+00  7.08742682E-02  3.39752839E-01  7.27158577E-01
  1.00000000E+00  0.00000000E+00  0.00000000E+00  0.00000000E+00  0.00000000E+00
  0.00000000E+00  0.00000000E+00  0.00000000E+00  6.89990666E-02  3.16423961E-01
  7.44308291E-01  1.00000000E+00  0.00000000E+00  0.00000000E+00  0.00000000E+00
  0.00000000E+00  0.00000000E+00  0.00000000E+00  0.00000000E+00  0.00000000E+00
  0.00000000E+00  0.00000000E+00  0.00000000E+00  0.00000000E+00  0.00000000E+00
  0.00000000E+00  0.00000000E+00  0.00000000E+00  0.00000000E+00  0.00000000E+00
  0.00000000E+00  6.89990666E-02  3.16423961E-01  7.44308291E-01  1.00000000E+00
  0.00000000E+00  0.00000000E+00  0.00000000E+00  0.00000000E+00  0.00000000E+00
  0.00000000E+00  0.00000000E+00  0.00000000E+00  0.00000000E+00  0.00000000E+00
  0.00000000E+00  6.89990666E-02  3.16423961E-01  7.44308291E-01  1.00000000E+00
  0.00000000E+00  0.00000000E+00  0.00000000E+00  0.00000000E+00  0.00000000E+00
Coordinates of each shell                  R   N=         144
  0.00000000E+00  0.00000000E+00  0.00000000E+00  0.00000000E+00  0.00000000E+00
  0.00000000E+00  0.00000000E+00  0.00000000E+00  2.00310969E+00  0.00000000E+00
  0.00000000E+00  2.00310969E+00  0.00000000E+00  0.00000000E+00  2.00310969E+00
  0.00000000E+00  0.00000000E+00  2.00310969E+00  2.27160198E+00  0.00000000E+00
  3.30702072E+00  2.27160198E+00  0.00000000E+00  3.30702072E+00  2.27160198E+00
  0.00000000E+00  3.30702072E+00  2.27160198E+00  0.00000000E+00  3.30702072E+00
  3.98199310E+00  0.00000000E+00  2.30546587E+00  3.98199310E+00  0.00000000E+00
  2.30546587E+00  2.24488125E+00  0.00000000E+00  5.91484277E+00  2.24488125E+00
  0.00000000E+00  5.91484277E+00  2.24488125E+00  0.00000000E+00  5.91484277E+00
  2.24488125E+00  0.00000000E+00  5.91484277E+00  3.98199310E+00  0.00000000E+00
  6.91639762E+00  3.98199310E+00  0.00000000E+00  6.91639762E+00  0.00000000E+00
  0.00000000E+00  7.21875380E+00  0.00000000E+00  0.00000000E+00  7.21875380E+00
  0.00000000E+00  0.00000000E+00  7.21875380E+00  0.00000000E+00  0.00000000E+00
  7.21875380E+00  0.00000000E+00  0.00000000E+00  9.84547311E+00  0.00000000E+00
  0.00000000E+00  9.84547311E+00  0.00000000E+00  0.00000000E+00  9.84547311E+00
  0.00000000E+00  0.00000000E+00  9.84547311E+00  2.53886595E+00  0.00000000E+00
  1.07714389E+01  2.53886595E+00  0.00000000E+00  1.07714389E+01  2.53886595E+00
  0.00000000E+00  1.07714389E+01  2.53886595E+00  0.00000000E+00  1.07714389E+01
  2.51212632E+00  0.00000000E+00  1.28501376E+01  2.51212632E+00  0.00000000E+00
  1.28501376E+01  3.51430478E+00 -1.69703075E+00  1.00911375E+01  3.51430478E+00
 -1.69703075E+00  1.00911375E+01  3.51430478E+00  1.69703075E+00  1.00911375E+01
  3.51430478E+00  1.69703075E+00  1.00911375E+01 -2.27160198E+00  0.00000000E+00
  5.91484277E+00 -2.27160198E+00  0.00000000E+00  5.91484277E+00 -2.27160198E+00
  0.00000000E+00  5.91484277E+00 -2.27160198E+00  0.00000000E+00  5.91484277E+00
 -3.98199310E+00  0.00000000E+00  6.91639762E+00 -3.98199310E+00  0.00000000E+00
  6.91639762E+00 -2.27160198E+00  0.00000000E+00  3.30702072E+00 -2.27160198E+00
  0.00000000E+00  3.30702072E+00 -2.27160198E+00  0.00000000E+00  3.30702072E+00
 -2.27160198E+00  0.00000000E+00  3.30702072E+00 -3.98199310E+00  0.00000000E+00
  2.30546587E+00 -3.98199310E+00  0.00000000E+00  2.30546587E+00
Num ILSW                                   I              100
ILSW                                       I   N=         100
           0           1           0           0           2           0
           0           0           0           0         402          -1
           5           0           0           0           0           0
           0           0           1           0           0           0
           1           1           0           0           0           0
           0           0      100000           0          -1           0
           0           0           0           0           0           0
           0           0           0           1           0           0
           0 -2000000000           1           0           0           0
           0           0           4          52           0           0
           0           0           5           0           0           0
           0           0           0           0           0           1
           0           0           0           0           0           0
           0           0           0           0           0           0
           0           0           0           0           0           0
           0           0           0           0           0           0
           0           0           0           0
Num RLSW                                   I               52
RLSW                                       R   N=          52
  8.00000000E-01  7.20000000E-01  1.00000000E+00  8.10000000E-01  2.00000000E-01
  0.00000000E+00  0.00000000E+00  1.00000000E+00  0.00000000E+00  0.00000000E+00
  0.00000000E+00  0.00000000E+00  1.00000000E+00  0.00000000E+00  0.00000000E+00
  0.00000000E+00  0.00000000E+00  1.00000000E+00  0.00000000E+00  0.00000000E+00
  0.00000000E+00  0.00000000E+00  1.00000000E+00  0.00000000E+00  0.00000000E+00
  0.00000000E+00  0.00000000E+00  1.00000000E+00  0.00000000E+00  0.00000000E+00
  0.00000000E+00  0.00000000E+00  1.00000000E+00  0.00000000E+00  0.00000000E+00
  0.00000000E+00  0.00000000E+00  0.00000000E+00  1.00000000E+00  1.00000000E+00
  0.00000000E+00  1.00000000E+00  0.00000000E+00  0.00000000E+00  0.00000000E+00
  0.00000000E+00  0.00000000E+00  0.00000000E+00  0.00000000E+00  0.00000000E+00
  0.00000000E+00  0.00000000E+00
MxBond                                     I                4
NBond                                      I   N=          16
           1           3           3           1           3           1
           3           2           4           1           1           1
           3           1           3           1
IBond                                      I   N=          64
           2           0           0           0           1           3
          15           0           2           4           5           0
           3           0           0           0           3           6
           7           0           5           0           0           0
           5           8          13           0           7           9
           0           0           8          10          11          12
           9           0           0           0           9           0
           0           0           9           0           0           0
           7          14          15           0          13           0
           0           0           2          13          16           0
          15           0           0           0
RBond                                      R   N=          64
  1.00000000E+00  0.00000000E+00  0.00000000E+00  0.00000000E+00  1.00000000E+00
  1.50000000E+00  1.50000000E+00  0.00000000E+00  1.50000000E+00  1.00000000E+00
  1.50000000E+00  0.00000000E+00  1.00000000E+00  0.00000000E+00  0.00000000E+00
  0.00000000E+00  1.50000000E+00  1.00000000E+00  1.50000000E+00  0.00000000E+00
  1.00000000E+00  0.00000000E+00  0.00000000E+00  0.00000000E+00  1.50000000E+00
  1.50000000E+00  1.50000000E+00  0.00000000E+00  1.50000000E+00  1.00000000E+00
  0.00000000E+00  0.00000000E+00  1.00000000E+00  1.00000000E+00  1.00000000E+00
  1.00000000E+00  1.00000000E+00  0.00000000E+00  0.00000000E+00  0.00000000E+00
  1.00000000E+00  0.00000000E+00  0.00000000E+00  0.00000000E+00  1.00000000E+00
  0.00000000E+00  0.00000000E+00  0.00000000E+00  1.50000000E+00  1.00000000E+00
  1.50000000E+00  0.00000000E+00  1.00000000E+00  0.00000000E+00  0.00000000E+00
  0.00000000E+00  1.50000000E+00  1.50000000E+00  1.00000000E+00  0.00000000E+00
  1.00000000E+00  0.00000000E+00  0.00000000E+00  0.00000000E+00
Virial Ratio                               R      2.008157432773845E+00
SCF Energy                                 R     -3.467564853847898E+02
Total Energy                               R     -3.467564853847898E+02
RMS Density                                R      6.495044156530648E-09
Job Status                                 I                1
Nuclear derivative order                   I                0
External E-field                           R   N=          35
  0.00000000E+00  0.00000000E+00  0.00000000E+00  0.00000000E+00  0.00000000E+00
  0.00000000E+00  0.00000000E+00  0.00000000E+00  0.00000000E+00  0.00000000E+00
  0.00000000E+00  0.00000000E+00  0.00000000E+00  0.00000000E+00  0.00000000E+00
  0.00000000E+00  0.00000000E+00  0.00000000E+00  0.00000000E+00  0.00000000E+00
  0.00000000E+00  0.00000000E+00  0.00000000E+00  0.00000000E+00  0.00000000E+00
  0.00000000E+00  0.00000000E+00  0.00000000E+00  0.00000000E+00  0.00000000E+00
  0.00000000E+00  0.00000000E+00  0.00000000E+00  0.00000000E+00  0.00000000E+00
IOpCl                                      I                0
IROHF                                      I                0
Alpha Orbital Energies                     R   N=         136
 -1.91742457E+01 -1.02374739E+01 -1.02365581E+01 -1.01807260E+01 -1.01806265E+01
 -1.01764683E+01 -1.01747410E+01 -1.01738505E+01 -1.05457544E+00 -8.51689639E-01
 -7.53470140E-01 -7.43020721E-01 -6.95609963E-01 -6.12589357E-01 -5.88091315E-01
 -5.39694418E-01 -4.80100880E-01 -4.71695276E-01 -4.67412954E-01 -4.53002827E-01
 -4.27471028E-01 -4.03255538E-01 -3.73066059E-01 -3.66562332E-01 -3.55675144E-01
 -3.25275366E-01 -3.14114820E-01 -2.49528675E-01 -2.19903235E-01  4.26612883E-03
  2.02792663E-02  9.53508456E-02  1.14392886E-01  1.30969302E-01  1.50813916E-01
  1.60428859E-01  1.66534427E-01  1.77801621E-01  1.80992287E-01  2.00371888E-01
  2.19092058E-01  2.49555937E-01  3.12458667E-01  3.23363711E-01  3.48512514E-01
  3.58978650E-01  4.82720191E-01  5.16019140E-01  5.27121547E-01  5.43172140E-01
  5.55464976E-01  5.58756682E-01  5.93383184E-01  5.99724877E-01  6.02395770E-01
  6.17069244E-01  6.20447280E-01  6.26319223E-01  6.28694832E-01  6.60405782E-01
  6.75476134E-01  6.85755827E-01  7.48581842E-01  7.65184708E-01  8.35548675E-01
  8.61091187E-01  8.66042605E-01  8.70846803E-01  8.73412084E-01  8.90842704E-01
  9.12137407E-01  9.37669281E-01  9.53954706E-01  9.72182773E-01  9.93138645E-01
  1.03182026E+00  1.04111933E+00  1.06206053E+00  1.11455987E+00  1.13097576E+00
  1.19056684E+00  1.22170284E+00  1.25497794E+00  1.30731413E+00  1.35355088E+00
  1.36407087E+00  1.44022206E+00  1.45926863E+00  1.46113770E+00  1.47681689E+00
  1.50265590E+00  1.50906902E+00  1.52537995E+00  1.71313823E+00  1.79555268E+00
  1.82127296E+00  1.85119243E+00  1.87060250E+00  1.93754231E+00  1.96973048E+00
  2.00302010E+00  2.01634133E+00  2.03606439E+00  2.07677701E+00  2.11373213E+00
  2.13381331E+00  2.15418261E+00  2.16144593E+00  2.18347575E+00  2.24722540E+00
  2.24848767E+00  2.28089639E+00  2.32494039E+00  2.38341051E+00  2.39344257E+00
  2.51712292E+00  2.52162755E+00  2.61748920E+00  2.66344461E+00  2.67027117E+00
  2.69490921E+00  2.76253799E+00  2.78155430E+00  2.81468003E+00  2.87964250E+00
  3.00711913E+00  3.16034971E+00  3.49146313E+00  4.04647374E+00  4.11399872E+00
  4.12939499E+00  4.23220403E+00  4.31521952E+00  4.35456239E+00  4.46305103E+00
  4.77740589E+00
Alpha MO coefficients                      R   N=       18496
 -2.95659808E-05 -2.42222185E-04  1.75733887E-05  9.45115217E-05 -2.43612555E-05
 -2.42367662E-16  2.10628702E-05 -1.35879700E-03  6.31645346E-05  2.40484723E-16
 -8.95245634E-04 -2.53388261E-05  4.00476339E-05  1.27082646E-05  7.35824514E-18
 -3.77864165E-06 -4.88687078E-17 -9.74655176E-06 -8.08304663E-05 -4.33335257E-06
  7.24286502E-17  8.43445240E-05  2.37253859E-03 -9.16525045E-04 -2.02660421E-16
  8.99620720E-04  1.89998166E-06 -6.15843437E-06  5.99959207E-05 -9.42138752E-18
  6.50337001E-06  1.94294330E-16  2.23069354E-05  2.70781509E-04  2.38296771E-05
  2.41021850E-04  1.02713447E-05  1.63507061E-16 -8.32441742E-05 -3.24481736E-03
  2.15443712E-03  3.66371469E-16  1.68929264E-03 -9.40791295E-05  4.74097302E-05
 -9.65239945E-05  2.81244056E-17  2.18560245E-05 -1.52029146E-16 -8.21672056E-05
 -9.33907670E-04 -5.33619817E-05  4.61343421E-05 -5.55043185E-05  1.47597195E-16
  4.26304331E-04  5.03692153E-04  7.11528838E-04 -5.64118534E-16 -4.73608238E-03
  5.80601922E-06 -8.64668862E-05  6.73247712E-05 -3.84410274E-17 -7.24092641E-05
  1.73596607E-17  9.92654481E-01  2.54457471E-02  8.14258133E-04  1.56324588E-16
 -5.10917790E-04  1.49693092E-02  1.59216625E-05  3.31596429E-16 -1.08969049E-03
 -8.48146153E-03 -8.33886350E-03 -8.32500181E-03  1.29544354E-16 -3.62736874E-06
 -1.15787338E-17  1.38049137E-05  2.19519464E-04 -3.60210589E-04  1.51922521E-16
 -8.58347405E-05 -1.81693623E-03  8.24120567E-04  1.14841621E-16  2.04016749E-04
  3.68638123E-04  2.67568030E-05  4.23372382E-05  2.16003505E-17  1.00857093E-04
 -1.87999709E-17  1.19571997E-04  7.78580868E-05  7.17770988E-05  1.18962858E-04
  7.17770988E-05  1.18962858E-04  1.08664530E-05  1.45258738E-04  1.26788872E-05
 -1.62494540E-16  8.90942934E-06 -1.47461562E-03 -1.48654910E-03  3.68495726E-16
  1.12907083E-03 -8.03982171E-05  2.88650861E-05 -4.16604989E-05  4.23824103E-17
 -5.30013768E-07 -2.28217208E-17 -3.86877500E-05 -7.63806555E-04  5.12935544E-06
  3.40074009E-06  2.67856654E-05 -1.63718201E-16  5.07749919E-05  1.48447725E-03
  5.57174704E-04 -4.44594897E-16  2.83387652E-04  1.68429879E-05  2.65787460E-05
  2.59525972E-05  4.90459066E-17 -1.86302496E-05 -5.78518844E-17  6.55776472E-06
  8.04029308E-05  1.25508806E-04  1.04100743E-03 -1.42945364E-04 -3.98782206E-04
  2.10923556E-05 -1.92497878E-16 -6.36361521E-05  6.16988912E-03 -6.12028271E-05
  2.77741480E-16  3.98438374E-03  3.56493898E-05 -1.46500933E-04 -3.47392184E-05
 -9.62514600E-17  4.09083240E-06  1.91551943E-17  9.09759335E-05  2.62448441E-04
  2.41102380E-05  9.87594569E-17 -1.24309441E-04 -8.40945900E-03  3.49973370E-03
 -5.53748252E-16 -2.78802085E-03  3.16180325E-05  6.40673744E-05  5.05303110E-05
  1.16247399E-16 -3.46537369E-05 -2.09888365E-16 -8.33324989E-05 -8.84904801E-04
  4.80623502E-03 -6.42195957E-04  2.95784775E-04 -2.41376976E-16  7.64093979E-07
  1.36065576E-02 -6.91408601E-03  8.98949551E-16 -3.75604396E-03 -2.97239266E-04
 -3.19236752E-04 -3.77792054E-04 -4.57042285E-16  1.44178400E-04 -2.63787934E-16
  2.21677193E-04  1.77211817E-03  9.92905911E-01  4.95762492E-02  1.01805096E-04
 -2.78419125E-16  7.87010955E-04 -1.99663012E-02 -4.71245535E-04 -4.76449718E-16
  1.12757314E-02 -8.94447276E-03 -9.40077334E-03 -8.43486225E-03 -4.32537219E-16
  4.04662743E-05 -1.51481858E-16  1.70959891E-04  1.20038521E-03  2.45932409E-06
  3.82180474E-17 -5.34991900E-05 -6.42860754E-03 -1.51164995E-04 -2.99838983E-16
  2.91305602E-03  6.82620351E-04  9.28255140E-04 -3.50539780E-04 -3.98014831E-16
  2.15029021E-05 -4.48744104E-16 -7.42237433E-04 -1.55536066E-04 -8.40924714E-05
 -6.23902206E-17 -2.22072096E-05  1.48449279E-04 -5.96715378E-06  2.42806114E-16
 -8.92268371E-04  2.38779058E-05  7.68596581E-05  1.26212367E-04 -3.19057951E-16
  1.63330569E-04 -2.93759768E-16  8.93191289E-05  3.38765475E-04 -1.23745769E-04
 -3.90383372E-05 -1.23745769E-04 -3.90383372E-05  4.50874637E-03 -5.58867473E-04
 -3.05781345E-04  2.68729577E-16 -6.99386093E-05  1.19679229E-02  6.61836888E-03
 -9.88743627E-17 -3.17227254E-03 -3.04957428E-04 -3.02877502E-04 -4.16158205E-04
 -2.16521735E-16 -1.60022453E-04  2.03059004E-16  1.93340521E-04  1.95786506E-03
  7.35795188E-05  1.87631131E-04 -4.26908776E-05  6.49208617E-17 -9.45950966E-05
 -7.58896941E-03 -3.24220972E-03 -6.37962066E-17 -2.23503497E-03  2.35941770E-05
  3.74604629E-05  7.76140105E-05  2.99820254E-18  3.71559839E-05  8.80600480E-17
 -7.32330069E-05 -7.42556125E-04 -1.29372426E-05  4.96637084E-06 -5.44895914E-06
 -1.91092188E-05 -5.57548745E-05  1.16950645E-16 -1.64286611E-05  1.83529102E-04
  1.89277139E-04 -3.85465842E-16 -2.12136128E-05  4.14652049E-06 -1.61620167E-05