CH2Et2_transform_new_1 0.0                                              
SP        RB3LYP                                                      6-31G(d)            
Number of atoms                            I               17
Info1-9                                    I   N=           9
          26          26           0           0           0         110
           1          18        -502
Full Title                                 C   N=           3
CH2Et2_transform_new_1 0.0          
Route                                      C   N=           2
# nosymm b3lyp/6-31G*   
Charge                                     I                0
Multiplicity                               I                1
Number of electrons                        I               42
Number of alpha electrons                  I               21
Number of beta electrons                   I               21
Number of basis functions                  I               99
Number of independent functions            I               99
Number of point charges in /Mol/           I                0
Number of translation vectors              I                0
Atomic numbers                             I   N=          17
           1           6           1           6           1           1
           6           1           1           1           6           1
           1           6           1           1           1
Nuclear charges                            R   N=          17
  1.00000000E+00  6.00000000E+00  1.00000000E+00  6.00000000E+00  1.00000000E+00
  1.00000000E+00  6.00000000E+00  1.00000000E+00  1.00000000E+00  1.00000000E+00
  6.00000000E+00  1.00000000E+00  1.00000000E+00  6.00000000E+00  1.00000000E+00
  1.00000000E+00  1.00000000E+00
Current cartesian coordinates              R   N=          51
  0.00000000E+00  0.00000000E+00  0.00000000E+00  0.00000000E+00  0.00000000E+00
  2.07869001E+00  6.86299830E-01 -1.82620948E+00  2.77789918E+00  1.74699645E+00
  2.11256769E+00  3.04245953E+00  3.67869026E+00  1.79646283E+00  2.36217054E+00
  1.05128717E+00  3.96379944E+00  2.36216720E+00  1.74698252E+00  2.11257242E+00
  5.95264513E+00  2.97516565E+00  3.63047053E+00  6.65184441E+00 -2.01919069E-01
  2.43649453E+00  6.65184303E+00  2.43328776E+00  2.86348480E-01  6.65184342E+00
 -2.70595504E+00  4.39118400E-01  3.04246913E+00 -3.95135107E+00 -1.07096475E+00
  2.36214651E+00 -2.70595504E+00  4.39118400E-01  5.12115914E+00 -3.67430246E+00
  3.01581746E+00  2.07869292E+00 -5.60599963E+00  3.33193390E+00  2.77789633E+00
 -2.42889798E+00  4.52590989E+00  2.77790610E+00 -3.67430246E+00  3.01581746E+00
  2.91017823E-06
Number of symbols in /Mol/                 I                0
Force Field                                I                0
Atom Types                                 C   N=          17
                                                            
                                                            
                                                            
                        
Int Atom Types                             I   N=          17
           0           0           0           0           0           0
           0           0           0           0           0           0
           0           0           0           0           0
MM charges                                 R   N=          17
  0.00000000E+00  0.00000000E+00  0.00000000E+00  0.00000000E+00  0.00000000E+00
  0.00000000E+00  0.00000000E+00  0.00000000E+00  0.00000000E+00  0.00000000E+00
  0.00000000E+00  0.00000000E+00  0.00000000E+00  0.00000000E+00  0.00000000E+00
  0.00000000E+00  0.00000000E+00
Integer atomic weights                     I   N=          17
           1          12           1          12           1           1
          12           1           1           1          12           1
           1          12           1           1           1
Real atomic weights                        R   N=          17
  1.00782504E+00  1.20000000E+01  1.00782504E+00  1.20000000E+01  1.00782504E+00
  1.00782504E+00  1.20000000E+01  1.00782504E+00  1.00782504E+00  1.00782504E+00
  1.20000000E+01  1.00782504E+00  1.00782504E+00  1.20000000E+01  1.00782504E+00
  1.00782504E+00  1.00782504E+00
Atom fragment info                         I   N=          17
           0           0           0           0           0           0
           0           0           0           0           0           0
           0           0           0           0           0
Atom residue num                           I   N=          17
           0           0           0           0           0           0
           0           0           0           0           0           0
           0           0           0           0           0
Nuclear spins                              I   N=          17
           1           0           1           0           1           1
           0           1           1           1           0           1
           1           0           1           1           1
Nuclear ZEff                               R   N=          17
 -1.00000000E+00 -3.60000000E+00 -1.00000000E+00 -3.60000000E+00 -1.00000000E+00
 -1.00000000E+00 -3.60000000E+00 -1.00000000E+00 -1.00000000E+00 -1.00000000E+00
 -3.60000000E+00 -1.00000000E+00 -1.00000000E+00 -3.60000000E+00 -1.00000000E+00
 -1.00000000E+00 -1.00000000E+00
Nuclear ZNuc                               R   N=          17
  1.00000000E+00  6.00000000E+00  1.00000000E+00  6.00000000E+00  1.00000000E+00
  1.00000000E+00  6.00000000E+00  1.00000000E+00  1.00000000E+00  1.00000000E+00
  6.00000000E+00  1.00000000E+00  1.00000000E+00  6.00000000E+00  1.00000000E+00
  1.00000000E+00  1.00000000E+00
Nuclear QMom                               R   N=          17
  0.00000000E+00  0.00000000E+00  0.00000000E+00  0.00000000E+00  0.00000000E+00
  0.00000000E+00  0.00000000E+00  0.00000000E+00  0.00000000E+00  0.00000000E+00
  0.00000000E+00  0.00000000E+00  0.00000000E+00  0.00000000E+00  0.00000000E+00
  0.00000000E+00  0.00000000E+00
Nuclear GFac                               R   N=          17
  2.79284600E+00  0.00000000E+00  2.79284600E+00  0.00000000E+00  2.79284600E+00
  2.79284600E+00  0.00000000E+00  2.79284600E+00  2.79284600E+00  2.79284600E+00
  0.00000000E+00  2.79284600E+00  2.79284600E+00  0.00000000E+00  2.79284600E+00
  2.79284600E+00  2.79284600E+00
MicOpt                                     I   N=          17
          -1          -1          -1          -1          -1          -1
          -1          -1          -1          -1          -1          -1
          -1          -1          -1          -1          -1
Number of residues                         I                0
Number of secondary structures             I                0
Number of contracted shells                I               44
Number of primitive shells                 I              103
Pure/Cartesian d shells                    I                1
Pure/Cartesian f shells                    I                0
Highest angular momentum                   I                2
Largest degree of contraction              I                6
Shell types                                I   N=          44
           0           0           0          -1          -1           2
           0           0           0          -1          -1           2
           0           0           0           0           0          -1
          -1           2           0           0           0           0
           0           0           0          -1          -1           2
           0           0           0           0           0          -1
          -1           2           0           0           0           0
           0           0
Number of primitives per shell             I   N=          44
           3           1           6           3           1           1
           3           1           6           3           1           1
           3           1           3           1           6           3
           1           1           3           1           3           1
           3           1           6           3           1           1
           3           1           3           1           6           3
           1           1           3           1           3           1
           3           1
Shell to atom map                          I   N=          44
           1           1           2           2           2           2
           3           3           4           4           4           4
           5           5           6           6           7           7
           7           7           8           8           9           9
          10          10          11          11          11          11
          12          12          13          13          14          14
          14          14          15          15          16          16
          17          17
Primitive exponents                        R   N=         103
  1.87311370E+01  2.82539436E+00  6.40121692E-01  1.61277759E-01  3.04752488E+03
  4.57369518E+02  1.03948685E+02  2.92101553E+01  9.28666296E+00  3.16392696E+00
  7.86827235E+00  1.88128854E+00  5.44249258E-01  1.68714478E-01  8.00000000E-01
  1.87311370E+01  2.82539436E+00  6.40121692E-01  1.61277759E-01  3.04752488E+03
  4.57369518E+02  1.03948685E+02  2.92101553E+01  9.28666296E+00  3.16392696E+00
  7.86827235E+00  1.88128854E+00  5.44249258E-01  1.68714478E-01  8.00000000E-01
  1.87311370E+01  2.82539436E+00  6.40121692E-01  1.61277759E-01  1.87311370E+01
  2.82539436E+00  6.40121692E-01  1.61277759E-01  3.04752488E+03  4.57369518E+02
  1.03948685E+02  2.92101553E+01  9.28666296E+00  3.16392696E+00  7.86827235E+00
  1.88128854E+00  5.44249258E-01  1.68714478E-01  8.00000000E-01  1.87311370E+01
  2.82539436E+00  6.40121692E-01  1.61277759E-01  1.87311370E+01  2.82539436E+00
  6.40121692E-01  1.61277759E-01  1.87311370E+01  2.82539436E+00  6.40121692E-01
  1.61277759E-01  3.04752488E+03  4.57369518E+02  1.03948685E+02  2.92101553E+01
  9.28666296E+00  3.16392696E+00  7.86827235E+00  1.88128854E+00  5.44249258E-01
  1.68714478E-01  8.00000000E-01  1.87311370E+01  2.82539436E+00  6.40121692E-01
  1.61277759E-01  1.87311370E+01  2.82539436E+00  6.40121692E-01  1.61277759E-01
  3.04752488E+03  4.57369518E+02  1.03948685E+02  2.92101553E+01  9.28666296E+00
  3.16392696E+00  7.86827235E+00  1.88128854E+00  5.44249258E-01  1.68714478E-01
  8.00000000E-01  1.87311370E+01  2.82539436E+00  6.40121692E-01  1.61277759E-01
  1.87311370E+01  2.82539436E+00  6.40121692E-01  1.61277759E-01  1.87311370E+01
  2.82539436E+00  6.40121692E-01  1.61277759E-01
Contraction coefficients                   R   N=         103
  3.34946043E-02  2.34726953E-01  8.13757326E-01  1.00000000E+00  1.83473713E-03
  1.40373228E-02  6.88426223E-02  2.32184443E-01  4.67941348E-01  3.62311985E-01
 -1.19332420E-01 -1.60854152E-01  1.14345644E+00  1.00000000E+00  1.00000000E+00
  3.34946043E-02  2.34726953E-01  8.13757326E-01  1.00000000E+00  1.83473713E-03
  1.40373228E-02  6.88426223E-02  2.32184443E-01  4.67941348E-01  3.62311985E-01
 -1.19332420E-01 -1.60854152E-01  1.14345644E+00  1.00000000E+00  1.00000000E+00
  3.34946043E-02  2.34726953E-01  8.13757326E-01  1.00000000E+00  3.34946043E-02
  2.34726953E-01  8.13757326E-01  1.00000000E+00  1.83473713E-03  1.40373228E-02
  6.88426223E-02  2.32184443E-01  4.67941348E-01  3.62311985E-01 -1.19332420E-01
 -1.60854152E-01  1.14345644E+00  1.00000000E+00  1.00000000E+00  3.34946043E-02
  2.34726953E-01  8.13757326E-01  1.00000000E+00  3.34946043E-02  2.34726953E-01
  8.13757326E-01  1.00000000E+00  3.34946043E-02  2.34726953E-01  8.13757326E-01
  1.00000000E+00  1.83473713E-03  1.40373228E-02  6.88426223E-02  2.32184443E-01
  4.67941348E-01  3.62311985E-01 -1.19332420E-01 -1.60854152E-01  1.14345644E+00
  1.00000000E+00  1.00000000E+00  3.34946043E-02  2.34726953E-01  8.13757326E-01
  1.00000000E+00  3.34946043E-02  2.34726953E-01  8.13757326E-01  1.00000000E+00
  1.83473713E-03  1.40373228E-02  6.88426223E-02  2.32184443E-01  4.67941348E-01
  3.62311985E-01 -1.19332420E-01 -1.60854152E-01  1.14345644E+00  1.00000000E+00
  1.00000000E+00  3.34946043E-02  2.34726953E-01  8.13757326E-01  1.00000000E+00
  3.34946043E-02  2.34726953E-01  8.13757326E-01  1.00000000E+00  3.34946043E-02
  2.34726953E-01  8.13757326E-01  1.00000000E+00
P(S=P) Contraction coefficients            R   N=         103
  0.00000000E+00  0.00000000E+00  0.00000000E+00  0.00000000E+00  0.00000000E+00
  0.00000000E+00  0.00000000E+00  0.00000000E+00  0.00000000E+00  0.00000000E+00
  6.89990666E-02  3.16423961E-01  7.44308291E-01  1.00000000E+00  0.00000000E+00
  0.00000000E+00  0.00000000E+00  0.00000000E+00  0.00000000E+00  0.00000000E+00
  0.00000000E+00  0.00000000E+00  0.00000000E+00  0.00000000E+00  0.00000000E+00
  6.89990666E-02  3.16423961E-01  7.44308291E-01  1.00000000E+00  0.00000000E+00
  0.00000000E+00  0.00000000E+00  0.00000000E+00  0.00000000E+00  0.00000000E+00
  0.00000000E+00  0.00000000E+00  0.00000000E+00  0.00000000E+00  0.00000000E+00
  0.00000000E+00  0.00000000E+00  0.00000000E+00  0.00000000E+00  6.89990666E-02
  3.16423961E-01  7.44308291E-01  1.00000000E+00  0.00000000E+00  0.00000000E+00
  0.00000000E+00  0.00000000E+00  0.00000000E+00  0.00000000E+00  0.00000000E+00
  0.00000000E+00  0.00000000E+00  0.00000000E+00  0.00000000E+00  0.00000000E+00
  0.00000000E+00  0.00000000E+00  0.00000000E+00  0.00000000E+00  0.00000000E+00
  0.00000000E+00  0.00000000E+00  6.89990666E-02  3.16423961E-01  7.44308291E-01
  1.00000000E+00  0.00000000E+00  0.00000000E+00  0.00000000E+00  0.00000000E+00
  0.00000000E+00  0.00000000E+00  0.00000000E+00  0.00000000E+00  0.00000000E+00
  0.00000000E+00  0.00000000E+00  0.00000000E+00  0.00000000E+00  0.00000000E+00
  0.00000000E+00  6.89990666E-02  3.16423961E-01  7.44308291E-01  1.00000000E+00
  0.00000000E+00  0.00000000E+00  0.00000000E+00  0.00000000E+00  0.00000000E+00
  0.00000000E+00  0.00000000E+00  0.00000000E+00  0.00000000E+00  0.00000000E+00
  0.00000000E+00  0.00000000E+00  0.00000000E+00
Coordinates of each shell                  R   N=         132
  0.00000000E+00  0.00000000E+00  0.00000000E+00  0.00000000E+00  0.00000000E+00
  0.00000000E+00  0.00000000E+00  0.00000000E+00  2.07869001E+00  0.00000000E+00
  0.00000000E+00  2.07869001E+00  0.00000000E+00  0.00000000E+00  2.07869001E+00
  0.00000000E+00  0.00000000E+00  2.07869001E+00  6.86299830E-01 -1.82620948E+00
  2.77789918E+00  6.86299830E-01 -1.82620948E+00  2.77789918E+00  1.74699645E+00
  2.11256769E+00  3.04245953E+00  1.74699645E+00  2.11256769E+00  3.04245953E+00
  1.74699645E+00  2.11256769E+00  3.04245953E+00  1.74699645E+00  2.11256769E+00
  3.04245953E+00  3.67869026E+00  1.79646283E+00  2.36217054E+00  3.67869026E+00
  1.79646283E+00  2.36217054E+00  1.05128717E+00  3.96379944E+00  2.36216720E+00
  1.05128717E+00  3.96379944E+00  2.36216720E+00  1.74698252E+00  2.11257242E+00
  5.95264513E+00  1.74698252E+00  2.11257242E+00  5.95264513E+00  1.74698252E+00
  2.11257242E+00  5.95264513E+00  1.74698252E+00  2.11257242E+00  5.95264513E+00
  2.97516565E+00  3.63047053E+00  6.65184441E+00  2.97516565E+00  3.63047053E+00
  6.65184441E+00 -2.01919069E-01  2.43649453E+00  6.65184303E+00 -2.01919069E-01
  2.43649453E+00  6.65184303E+00  2.43328776E+00  2.86348480E-01  6.65184342E+00
  2.43328776E+00  2.86348480E-01  6.65184342E+00 -2.70595504E+00  4.39118400E-01
  3.04246913E+00 -2.70595504E+00  4.39118400E-01  3.04246913E+00 -2.70595504E+00
  4.39118400E-01  3.04246913E+00 -2.70595504E+00  4.39118400E-01  3.04246913E+00
 -3.95135107E+00 -1.07096475E+00  2.36214651E+00 -3.95135107E+00 -1.07096475E+00
  2.36214651E+00 -2.70595504E+00  4.39118400E-01  5.12115914E+00 -2.70595504E+00
  4.39118400E-01  5.12115914E+00 -3.67430246E+00  3.01581746E+00  2.07869292E+00
 -3.67430246E+00  3.01581746E+00  2.07869292E+00 -3.67430246E+00  3.01581746E+00
  2.07869292E+00 -3.67430246E+00  3.01581746E+00  2.07869292E+00 -5.60599963E+00
  3.33193390E+00  2.77789633E+00 -5.60599963E+00  3.33193390E+00  2.77789633E+00
 -2.42889798E+00  4.52590989E+00  2.77790610E+00 -2.42889798E+00  4.52590989E+00
  2.77790610E+00 -3.67430246E+00  3.01581746E+00  2.91017823E-06 -3.67430246E+00
  3.01581746E+00  2.91017823E-06
Num ILSW                                   I              100
ILSW                                       I   N=         100
           0           1           0           0           2           0
           0           0           0           0         402          -1
           5           0           0           0           0           0
           0           0           1           0           0           0
           1           1           0           0           0           0
           0           0      100000           0          -1           0
           0           0           0           0           0           0
           0           0           0           1           0           0
           0 -2000000000           1           0           0           0
           0           0           4          52           0           0
           0           0           5           0           0           0
           0           0           0           0           0           1
           0           0           0           0           0           0
           0           0           0           0           0           0
           0           0           0           0           0           0
           0           0           0           0           0           0
           0           0           0           0
Num RLSW                                   I               52
RLSW                                       R   N=          52
  8.00000000E-01  7.20000000E-01  1.00000000E+00  8.10000000E-01  2.00000000E-01
  0.00000000E+00  0.00000000E+00  1.00000000E+00  0.00000000E+00  0.00000000E+00
  0.00000000E+00  0.00000000E+00  1.00000000E+00  0.00000000E+00  0.00000000E+00
  0.00000000E+00  0.00000000E+00  1.00000000E+00  0.00000000E+00  0.00000000E+00
  0.00000000E+00  0.00000000E+00  1.00000000E+00  0.00000000E+00  0.00000000E+00
  0.00000000E+00  0.00000000E+00  1.00000000E+00  0.00000000E+00  0.00000000E+00
  0.00000000E+00  0.00000000E+00  1.00000000E+00  0.00000000E+00  0.00000000E+00
  0.00000000E+00  0.00000000E+00  0.00000000E+00  1.00000000E+00  1.00000000E+00
  0.00000000E+00  1.00000000E+00  0.00000000E+00  0.00000000E+00  0.00000000E+00
  0.00000000E+00  0.00000000E+00  0.00000000E+00  0.00000000E+00  0.00000000E+00
  0.00000000E+00  0.00000000E+00
MxBond                                     I                4
NBond                                      I   N=          17
           1           4           1           4           1           1
           4           1           1           1           4           1
           1           4           1           1           1
IBond                                      I   N=          68
           2           0           0           0           1           3
           4          11           2           0           0           0
           2           5           6           7           4           0
           0           0           4           0           0           0
           4           8           9          10           7           0
           0           0           7           0           0           0
           7           0           0           0           2          12
          13          14          11           0           0           0
          11           0           0           0          11          15
          16          17          14           0           0           0
          14           0           0           0          14           0
           0           0
RBond                                      R   N=          68
  1.00000000E+00  0.00000000E+00  0.00000000E+00  0.00000000E+00  1.00000000E+00
  1.00000000E+00  1.00000000E+00  1.00000000E+00  1.00000000E+00  0.00000000E+00
  0.00000000E+00  0.00000000E+00  1.00000000E+00  1.00000000E+00  1.00000000E+00
  1.00000000E+00  1.00000000E+00  0.00000000E+00  0.00000000E+00  0.00000000E+00
  1.00000000E+00  0.00000000E+00  0.00000000E+00  0.00000000E+00  1.00000000E+00
  1.00000000E+00  1.00000000E+00  1.00000000E+00  1.00000000E+00  0.00000000E+00
  0.00000000E+00  0.00000000E+00  1.00000000E+00  0.00000000E+00  0.00000000E+00
  0.00000000E+00  1.00000000E+00  0.00000000E+00  0.00000000E+00  0.00000000E+00
  1.00000000E+00  1.00000000E+00  1.00000000E+00  1.00000000E+00  1.00000000E+00
  0.00000000E+00  0.00000000E+00  0.00000000E+00  1.00000000E+00  0.00000000E+00
  0.00000000E+00  0.00000000E+00  1.00000000E+00  1.00000000E+00  1.00000000E+00
  1.00000000E+00  1.00000000E+00  0.00000000E+00  0.00000000E+00  0.00000000E+00
  1.00000000E+00  0.00000000E+00  0.00000000E+00  0.00000000E+00  1.00000000E+00
  0.00000000E+00  0.00000000E+00  0.00000000E+00
Virial Ratio                               R      2.010410414122830E+00
SCF Energy                                 R     -1.977604315321784E+02
Total Energy                               R     -1.977604315321784E+02
RMS Density                                R      5.142158497184175E-09
Job Status                                 I                1
Nuclear derivative order                   I                0
External E-field                           R   N=          35
  0.00000000E+00  0.00000000E+00  0.00000000E+00  0.00000000E+00  0.00000000E+00
  0.00000000E+00  0.00000000E+00  0.00000000E+00  0.00000000E+00  0.00000000E+00
  0.00000000E+00  0.00000000E+00  0.00000000E+00  0.00000000E+00  0.00000000E+00
  0.00000000E+00  0.00000000E+00  0.00000000E+00  0.00000000E+00  0.00000000E+00
  0.00000000E+00  0.00000000E+00  0.00000000E+00  0.00000000E+00  0.00000000E+00
  0.00000000E+00  0.00000000E+00  0.00000000E+00  0.00000000E+00  0.00000000E+00
  0.00000000E+00  0.00000000E+00  0.00000000E+00  0.00000000E+00  0.00000000E+00
IOpCl                                      I                0
IROHF                                      I                0
Alpha Orbital Energies                     R   N=          99
 -1.01746489E+01 -1.01738996E+01 -1.01724284E+01 -1.01702329E+01 -1.01701978E+01
 -8.01351733E-01 -7.33929788E-01 -6.67758594E-01 -6.11862126E-01 -5.44372975E-01
 -4.71076170E-01 -4.59383460E-01 -4.10841032E-01 -3.98882152E-01 -3.94393490E-01
 -3.64890734E-01 -3.55299307E-01 -3.36102277E-01 -3.16460008E-01 -3.08424536E-01
 -3.08086898E-01  8.72935461E-02  1.22279139E-01  1.25742589E-01  1.36369714E-01
  1.54794539E-01  1.63458807E-01  1.73277719E-01  1.84753063E-01  1.97986564E-01
  2.09966607E-01  2.19537832E-01  2.26604021E-01  2.36844550E-01  2.41355029E-01
  2.62946192E-01  2.86335971E-01  5.08989966E-01  5.15513870E-01  5.46489425E-01
  5.50276513E-01  5.61181274E-01  5.76396015E-01  6.39379452E-01  6.47896585E-01
  6.62090343E-01  6.83184259E-01  6.99713915E-01  7.30664428E-01  7.60545316E-01
  8.55040787E-01  8.69293527E-01  8.77674217E-01  8.91717045E-01  9.04996982E-01
  9.07434507E-01  9.08925154E-01  9.39753508E-01  9.50572997E-01  9.71432974E-01
  9.83265045E-01  1.00117772E+00  1.01858755E+00  1.05227812E+00  1.12811061E+00
  1.26948710E+00  1.40668699E+00  1.42789643E+00  1.52108588E+00  1.61400625E+00
  1.61733288E+00  1.62578106E+00  1.67657043E+00  1.78219222E+00  1.83789256E+00
  1.92805928E+00  1.96624468E+00  1.99059607E+00  2.01441813E+00  2.04993833E+00
  2.09295936E+00  2.13349300E+00  2.19755267E+00  2.26020163E+00  2.30719771E+00
  2.31088008E+00  2.31910010E+00  2.34255078E+00  2.43908749E+00  2.44143150E+00
  2.53577526E+00  2.59773352E+00  2.66303913E+00  2.75946026E+00  4.13229041E+00
  4.21357987E+00  4.36075885E+00  4.42725269E+00  4.53692917E+00
Alpha MO coefficients                      R   N=        9801
 -1.40464957E-04  2.82973720E-06  4.69141823E-02  2.19674296E-03 -1.14177557E-05
 -4.84327817E-05  2.03739110E-05  3.39097053E-03  1.68197236E-03  1.42100354E-03
  6.12353753E-04 -6.51400746E-04 -6.67165159E-04 -5.24352055E-04 -1.42334978E-04
 -1.56815069E-05 -8.45726098E-05 -1.62393050E-04  1.17579428E-04  9.91691027E-01
  5.00527449E-02 -1.16527131E-04 -3.35708125E-05  9.50267974E-05 -1.96085428E-02
  1.05214567E-03  7.61633332E-04 -1.11100748E-03 -8.78753326E-03 -8.86050577E-03
 -8.95204487E-03 -1.08282091E-04 -3.23941679E-05 -3.31800511E-05  7.08699279E-06
  2.58664668E-03  5.88041095E-05  2.98167757E-03  2.27537743E-02  8.41830453E-04
 -4.51515276E-05 -4.03937606E-05  4.99287034E-05  4.90985832E-03 -3.40011387E-05
  2.88599629E-05 -2.37065395E-03 -3.18074280E-04 -3.13296488E-04 -6.29553831E-04
 -1.64377309E-05  4.08641352E-05  2.63437592E-05 -1.83216481E-04 -1.15684394E-04
 -1.89399525E-04  4.95290533E-05 -1.98448295E-04  8.48260171E-05  1.30462794E-03
 -2.83550227E-04 -1.23701427E-04 -1.12117160E-04  1.40317585E-05  1.19447007E-03
  7.09310469E-04  5.01689823E-04  8.36341139E-05 -6.98564089E-05 -1.06313167E-04
 -1.53074418E-04  5.37400971E-05  2.75222040E-06  1.90744380E-05 -3.47219330E-05
  5.19223251E-04 -5.24694114E-05 -4.24703284E-04 -6.14540275E-04 -1.04797792E-04
 -1.13591830E-04  4.23117615E-05 -5.90053382E-05  1.31983011E-04  1.87870317E-04
  1.29438073E-04  1.09389890E-04 -5.83885441E-05 -3.19622879E-05 -1.02124820E-04
  2.85642216E-05  3.19501771E-05 -3.55260147E-06  9.42098905E-06  8.72755189E-05
 -1.96470072E-05 -3.42351382E-04  5.30014772E-05 -9.12334945E-05 -1.60073196E-04
  1.84872538E-04  7.05127443E-02  3.39142378E-03  2.39054127E-05  1.71305233E-05
 -4.25063267E-05  2.88257398E-03 -2.22489345E-03 -1.24448266E-05  4.69029241E-04
 -9.71377086E-04 -7.54435755E-04 -7.45599162E-04 -2.07671171E-06  1.13060633E-04
 -4.40415856E-05 -1.38647015E-04  6.27653370E-05 -4.76766129E-03 -5.95186602E-04
  1.47796431E-04  4.88034779E-05 -6.22651362E-05  1.42580060E-03 -8.79147360E-04
 -1.96160989E-04  1.57352765E-04  4.08416280E-06 -9.15482650E-05 -9.29813235E-05
  2.11167924E-05 -2.84571115E-05  9.82663556E-06 -3.85833958E-05  4.97002459E-04
 -5.83905482E-05 -4.38610720E-04 -9.33526327E-04 -1.26337994E-04  9.76195398E-05
  6.77987776E-06  9.58004184E-05  1.22976496E-04 -2.55569631E-04  2.41319863E-05
  2.17206809E-05 -2.44600831E-05 -1.16099517E-04 -4.42280657E-05 -1.46733210E-06
 -2.08382135E-05  2.16271121E-07  9.96108701E-06  9.73486799E-05 -1.99200903E-05
 -3.46095106E-04  5.33268268E-05 -1.00840914E-04  9.90178769E-01  4.99890315E-02
  8.58357819E-05  1.18748338E-04 -8.38556257E-06 -1.94457667E-02 -8.15971998E-04
 -1.26800534E-03  6.12670566E-04 -8.91630051E-03 -8.89039887E-03 -8.78821157E-03
  9.30878482E-05  7.01369014E-05  7.09447489E-05  2.90167434E-06  2.57381714E-03
  4.99967638E-05  3.03058435E-03  2.65566042E-02  1.02911946E-03  3.84523130E-05
  5.91556601E-05 -3.46642152E-05  4.79615428E-03  8.03298063E-04 -2.05591743E-03
  8.08709783E-04 -3.70720227E-04 -6.15647807E-04 -3.83760476E-04  6.86700787E-05
 -2.01953645E-05  1.24976662E-04 -1.83569496E-04 -9.47442314E-05 -1.90568804E-04
  5.56644711E-05 -1.99731339E-04  9.20182605E-05  6.98722429E-05  2.66679048E-03
  9.89456423E-01  5.01200037E-02 -4.79160823E-05  1.30894816E-04  1.07709066E-04
 -2.05085314E-02  6.46534816E-04 -1.56558753E-03 -1.23035151E-03 -8.88285144E-03
 -8.79632341E-03 -8.72592463E-03 -5.18536006E-05  3.48157956E-05 -8.07310263E-05
  7.05490780E-05  2.70458896E-03 -4.68236020E-02 -2.54807087E-03 -4.43321240E-05
  4.29653633E-05 -9.87239540E-06  5.50791604E-03 -1.33756418E-03 -1.56929488E-03
 -1.04492578E-03  2.69778395E-04  1.62630040E-04  2.66587702E-04 -1.41699911E-04
 -3.42086900E-05 -8.60541843E-05 -1.59144232E-04 -3.43869251E-04 -1.62648323E-04
 -1.77784231E-04 -3.95277792E-03 -5.20522236E-04  6.23227791E-05  1.10542912E-04
  1.00759175E-04  8.80060514E-04 -4.53790841E-04 -6.74826194E-04 -2.77985788E-04
 -6.61850179E-05 -3.28477599E-05 -8.98275352E-06  4.77592192E-05  3.51546982E-05
  3.59465219E-05 -7.65100309E-06  5.50561797E-04 -7.51091293E-05 -3.61525065E-04
 -1.00788388E-04 -3.93123939E-04 -7.07549280E-02 -3.76762242E-03  1.62453144E-05
  1.35131408E-05  5.70171412E-05  6.02658090E-03  2.19982210E-03 -5.69751513E-04
 -6.02277838E-04  3.35768064E-04  4.95874022E-04  5.04151772E-04  6.01900310E-05
  1.29422440E-04 -1.36433030E-05 -1.61186483E-04 -3.97244050E-04 -1.64842198E-04
 -2.68740907E-04 -4.94806494E-03 -5.61666652E-04 -1.37795508E-04  8.00795673E-05
  4.23530940E-05  7.73142144E-04  7.47077389E-04 -1.02477632E-04 -3.58559958E-04
  1.21291436E-05 -2.32644680E-05 -5.92360898E-05 -5.56416155E-05 -2.60624453E-05
 -1.61529002E-05 -2.99026874E-06  5.48554250E-04 -7.04437705E-05 -3.79459441E-04
 -9.49555932E-05 -3.87362208E-04 -1.83637039E-05  4.62912508E-04  2.88989333E-03
 -1.62037706E-04 -2.95964186E-06 -6.54879544E-05 -1.51557517E-04  6.54009186E-04
  6.86881275E-05  1.32978221E-04  6.31910241E-04 -1.34260296E-04 -1.23940415E-04
 -7.29840073E-05  3.61829164E-05  2.38276609E-05  2.04189826E-05 -5.79619738E-05
 -2.60473550E-04 -2.31184220E-02 -1.33227576E-03  4.13241081E-05  2.62929956E-05
 -1.13472078E-04  4.28102194E-03  1.16168506E-04  1.85072130E-04  2.18202276E-03
  7.94372344E-05  8.86365983E-05 -1.82850896E-04 -4.31185694E-05  2.40231361E-06
  2.92015609E-06 -1.40503201E-04 -5.31218202E-06 -1.68835574E-04  2.00513504E-05
  9.92152574E-01  4.98960114E-02 -4.74646988E-05 -4.37443045E-05 -3.33070893E-05
 -1.72199085E-02  2.79608413E-04  1.62544662E-04  1.13779180E-03 -9.05028023E-03
 -9.01716748E-03 -9.19259510E-03  8.82015592E-06  4.84633690E-06 -4.36069966E-07
 -6.77183636E-05  2.54175929E-03 -3.85645772E-05  2.93901664E-03 -4.42088359E-05
  2.78677636E-03 -3.10187549E-04 -1.01436224E-04 -1.10763416E-04  2.04223421E-07
 -7.02261935E-05  4.94288870E-04  8.40195824E-05  2.06336855E-04  2.83806094E-04
 -7.74724353E-05 -9.42918591E-05 -1.67295109E-05 -1.21815935E-05 -2.77842034E-05