CHiPr2_transform_new_1 0.0                                              
SP        RB3LYP                                                      6-31G(d)            
Number of atoms                            I               23
Info1-9                                    I   N=           9
          32          32           0           0           0         110
           1          18        -502
Full Title                                 C   N=           3
CHiPr2_transform_new_1 0.0          
Route                                      C   N=           2
# nosymm b3lyp/6-31G*   
Charge                                     I                0
Multiplicity                               I                1
Number of electrons                        I               58
Number of alpha electrons                  I               29
Number of beta electrons                   I               29
Number of basis functions                  I              137
Number of independent functions            I              137
Number of point charges in /Mol/           I                0
Number of translation vectors              I                0
Atomic numbers                             I   N=          23
           1           6           1           6           1           6
           1           1           1           6           1           1
           1           6           1           6           1           1
           1           6           1           1           1
Nuclear charges                            R   N=          23
  1.00000000E+00  6.00000000E+00  1.00000000E+00  6.00000000E+00  1.00000000E+00
  6.00000000E+00  1.00000000E+00  1.00000000E+00  1.00000000E+00  6.00000000E+00
  1.00000000E+00  1.00000000E+00  1.00000000E+00  6.00000000E+00  1.00000000E+00
  6.00000000E+00  1.00000000E+00  1.00000000E+00  1.00000000E+00  6.00000000E+00
  1.00000000E+00  1.00000000E+00  1.00000000E+00
Current cartesian coordinates              R   N=          69
  0.00000000E+00  0.00000000E+00  0.00000000E+00  0.00000000E+00  0.00000000E+00
  2.07869749E+00 -2.23178658E-01 -1.93808008E+00  2.77790171E+00  2.51879309E+00
  1.08195100E+00  3.04247125E+00  2.51877443E+00  1.08195100E+00  5.12117172E+00
  4.72577947E+00 -5.44157409E-01  2.07873699E+00  6.52323484E+00  2.30771635E-01
  2.77794336E+00  4.48778493E+00 -2.49400466E+00  2.77793450E+00  4.72577947E+00
 -5.44157409E-01  3.94952760E-05  2.83366985E+00  3.81652047E+00  2.07870605E+00
  4.63114565E+00  4.59146486E+00  2.77792033E+00  2.83368851E+00  3.81652047E+00
  5.57469207E-06  1.25937383E+00  4.97969541E+00  2.77789565E+00 -2.20700504E+00
  1.62610840E+00  3.04243476E+00 -1.98076446E+00  3.59075745E+00  2.36213075E+00
 -4.72579880E+00  5.44183771E-01  2.07865671E+00 -6.30009485E+00  1.70735871E+00
  2.77784629E+00 -4.72578015E+00  5.44183771E-01 -4.37849543E-05 -4.93722520E+00
 -1.40871592E+00  2.77786057E+00 -2.20701180E+00  1.62611455E+00  5.95261679E+00
 -3.76651235E+00  2.80104129E+00  6.65180523E+00 -2.43019220E+00 -3.11980895E-01
  6.65181016E+00 -3.94742263E-01  2.41279540E+00  6.65181905E+00
Number of symbols in /Mol/                 I                0
Force Field                                I                0
Atom Types                                 C   N=          23
                                                            
                                                            
                                                            
                                                            
                                    
Int Atom Types                             I   N=          23
           0           0           0           0           0           0
           0           0           0           0           0           0
           0           0           0           0           0           0
           0           0           0           0           0
MM charges                                 R   N=          23
  0.00000000E+00  0.00000000E+00  0.00000000E+00  0.00000000E+00  0.00000000E+00
  0.00000000E+00  0.00000000E+00  0.00000000E+00  0.00000000E+00  0.00000000E+00
  0.00000000E+00  0.00000000E+00  0.00000000E+00  0.00000000E+00  0.00000000E+00
  0.00000000E+00  0.00000000E+00  0.00000000E+00  0.00000000E+00  0.00000000E+00
  0.00000000E+00  0.00000000E+00  0.00000000E+00
Integer atomic weights                     I   N=          23
           1          12           1          12           1          12
           1           1           1          12           1           1
           1          12           1          12           1           1
           1          12           1           1           1
Real atomic weights                        R   N=          23
  1.00782504E+00  1.20000000E+01  1.00782504E+00  1.20000000E+01  1.00782504E+00
  1.20000000E+01  1.00782504E+00  1.00782504E+00  1.00782504E+00  1.20000000E+01
  1.00782504E+00  1.00782504E+00  1.00782504E+00  1.20000000E+01  1.00782504E+00
  1.20000000E+01  1.00782504E+00  1.00782504E+00  1.00782504E+00  1.20000000E+01
  1.00782504E+00  1.00782504E+00  1.00782504E+00
Atom fragment info                         I   N=          23
           0           0           0           0           0           0
           0           0           0           0           0           0
           0           0           0           0           0           0
           0           0           0           0           0
Atom residue num                           I   N=          23
           0           0           0           0           0           0
           0           0           0           0           0           0
           0           0           0           0           0           0
           0           0           0           0           0
Nuclear spins                              I   N=          23
           1           0           1           0           1           0
           1           1           1           0           1           1
           1           0           1           0           1           1
           1           0           1           1           1
Nuclear ZEff                               R   N=          23
 -1.00000000E+00 -3.60000000E+00 -1.00000000E+00 -3.60000000E+00 -1.00000000E+00
 -3.60000000E+00 -1.00000000E+00 -1.00000000E+00 -1.00000000E+00 -3.60000000E+00
 -1.00000000E+00 -1.00000000E+00 -1.00000000E+00 -3.60000000E+00 -1.00000000E+00
 -3.60000000E+00 -1.00000000E+00 -1.00000000E+00 -1.00000000E+00 -3.60000000E+00
 -1.00000000E+00 -1.00000000E+00 -1.00000000E+00
Nuclear ZNuc                               R   N=          23
  1.00000000E+00  6.00000000E+00  1.00000000E+00  6.00000000E+00  1.00000000E+00
  6.00000000E+00  1.00000000E+00  1.00000000E+00  1.00000000E+00  6.00000000E+00
  1.00000000E+00  1.00000000E+00  1.00000000E+00  6.00000000E+00  1.00000000E+00
  6.00000000E+00  1.00000000E+00  1.00000000E+00  1.00000000E+00  6.00000000E+00
  1.00000000E+00  1.00000000E+00  1.00000000E+00
Nuclear QMom                               R   N=          23
  0.00000000E+00  0.00000000E+00  0.00000000E+00  0.00000000E+00  0.00000000E+00
  0.00000000E+00  0.00000000E+00  0.00000000E+00  0.00000000E+00  0.00000000E+00
  0.00000000E+00  0.00000000E+00  0.00000000E+00  0.00000000E+00  0.00000000E+00
  0.00000000E+00  0.00000000E+00  0.00000000E+00  0.00000000E+00  0.00000000E+00
  0.00000000E+00  0.00000000E+00  0.00000000E+00
Nuclear GFac                               R   N=          23
  2.79284600E+00  0.00000000E+00  2.79284600E+00  0.00000000E+00  2.79284600E+00
  0.00000000E+00  2.79284600E+00  2.79284600E+00  2.79284600E+00  0.00000000E+00
  2.79284600E+00  2.79284600E+00  2.79284600E+00  0.00000000E+00  2.79284600E+00
  0.00000000E+00  2.79284600E+00  2.79284600E+00  2.79284600E+00  0.00000000E+00
  2.79284600E+00  2.79284600E+00  2.79284600E+00
MicOpt                                     I   N=          23
          -1          -1          -1          -1          -1          -1
          -1          -1          -1          -1          -1          -1
          -1          -1          -1          -1          -1          -1
          -1          -1          -1          -1          -1
Number of residues                         I                0
Number of secondary structures             I                0
Number of contracted shells                I               60
Number of primitive shells                 I              141
Pure/Cartesian d shells                    I                1
Pure/Cartesian f shells                    I                0
Highest angular momentum                   I                2
Largest degree of contraction              I                6
Shell types                                I   N=          60
           0           0           0          -1          -1           2
           0           0           0          -1          -1           2
           0           0           0          -1          -1           2
           0           0           0           0           0           0
           0          -1          -1           2           0           0
           0           0           0           0           0          -1
          -1           2           0           0           0          -1
          -1           2           0           0           0           0
           0           0           0          -1          -1           2
           0           0           0           0           0           0
Number of primitives per shell             I   N=          60
           3           1           6           3           1           1
           3           1           6           3           1           1
           3           1           6           3           1           1
           3           1           3           1           3           1
           6           3           1           1           3           1
           3           1           3           1           6           3
           1           1           3           1           6           3
           1           1           3           1           3           1
           3           1           6           3           1           1
           3           1           3           1           3           1
Shell to atom map                          I   N=          60
           1           1           2           2           2           2
           3           3           4           4           4           4
           5           5           6           6           6           6
           7           7           8           8           9           9
          10          10          10          10          11          11
          12          12          13          13          14          14
          14          14          15          15          16          16
          16          16          17          17          18          18
          19          19          20          20          20          20
          21          21          22          22          23          23
Primitive exponents                        R   N=         141
  1.87311370E+01  2.82539436E+00  6.40121692E-01  1.61277759E-01  3.04752488E+03
  4.57369518E+02  1.03948685E+02  2.92101553E+01  9.28666296E+00  3.16392696E+00
  7.86827235E+00  1.88128854E+00  5.44249258E-01  1.68714478E-01  8.00000000E-01
  1.87311370E+01  2.82539436E+00  6.40121692E-01  1.61277759E-01  3.04752488E+03
  4.57369518E+02  1.03948685E+02  2.92101553E+01  9.28666296E+00  3.16392696E+00
  7.86827235E+00  1.88128854E+00  5.44249258E-01  1.68714478E-01  8.00000000E-01
  1.87311370E+01  2.82539436E+00  6.40121692E-01  1.61277759E-01  3.04752488E+03
  4.57369518E+02  1.03948685E+02  2.92101553E+01  9.28666296E+00  3.16392696E+00
  7.86827235E+00  1.88128854E+00  5.44249258E-01  1.68714478E-01  8.00000000E-01
  1.87311370E+01  2.82539436E+00  6.40121692E-01  1.61277759E-01  1.87311370E+01
  2.82539436E+00  6.40121692E-01  1.61277759E-01  1.87311370E+01  2.82539436E+00
  6.40121692E-01  1.61277759E-01  3.04752488E+03  4.57369518E+02  1.03948685E+02
  2.92101553E+01  9.28666296E+00  3.16392696E+00  7.86827235E+00  1.88128854E+00
  5.44249258E-01  1.68714478E-01  8.00000000E-01  1.87311370E+01  2.82539436E+00
  6.40121692E-01  1.61277759E-01  1.87311370E+01  2.82539436E+00  6.40121692E-01
  1.61277759E-01  1.87311370E+01  2.82539436E+00  6.40121692E-01  1.61277759E-01
  3.04752488E+03  4.57369518E+02  1.03948685E+02  2.92101553E+01  9.28666296E+00
  3.16392696E+00  7.86827235E+00  1.88128854E+00  5.44249258E-01  1.68714478E-01
  8.00000000E-01  1.87311370E+01  2.82539436E+00  6.40121692E-01  1.61277759E-01
  3.04752488E+03  4.57369518E+02  1.03948685E+02  2.92101553E+01  9.28666296E+00
  3.16392696E+00  7.86827235E+00  1.88128854E+00  5.44249258E-01  1.68714478E-01
  8.00000000E-01  1.87311370E+01  2.82539436E+00  6.40121692E-01  1.61277759E-01
  1.87311370E+01  2.82539436E+00  6.40121692E-01  1.61277759E-01  1.87311370E+01
  2.82539436E+00  6.40121692E-01  1.61277759E-01  3.04752488E+03  4.57369518E+02
  1.03948685E+02  2.92101553E+01  9.28666296E+00  3.16392696E+00  7.86827235E+00
  1.88128854E+00  5.44249258E-01  1.68714478E-01  8.00000000E-01  1.87311370E+01
  2.82539436E+00  6.40121692E-01  1.61277759E-01  1.87311370E+01  2.82539436E+00
  6.40121692E-01  1.61277759E-01  1.87311370E+01  2.82539436E+00  6.40121692E-01
  1.61277759E-01
Contraction coefficients                   R   N=         141
  3.34946043E-02  2.34726953E-01  8.13757326E-01  1.00000000E+00  1.83473713E-03
  1.40373228E-02  6.88426223E-02  2.32184443E-01  4.67941348E-01  3.62311985E-01
 -1.19332420E-01 -1.60854152E-01  1.14345644E+00  1.00000000E+00  1.00000000E+00
  3.34946043E-02  2.34726953E-01  8.13757326E-01  1.00000000E+00  1.83473713E-03
  1.40373228E-02  6.88426223E-02  2.32184443E-01  4.67941348E-01  3.62311985E-01
 -1.19332420E-01 -1.60854152E-01  1.14345644E+00  1.00000000E+00  1.00000000E+00
  3.34946043E-02  2.34726953E-01  8.13757326E-01  1.00000000E+00  1.83473713E-03
  1.40373228E-02  6.88426223E-02  2.32184443E-01  4.67941348E-01  3.62311985E-01
 -1.19332420E-01 -1.60854152E-01  1.14345644E+00  1.00000000E+00  1.00000000E+00
  3.34946043E-02  2.34726953E-01  8.13757326E-01  1.00000000E+00  3.34946043E-02
  2.34726953E-01  8.13757326E-01  1.00000000E+00  3.34946043E-02  2.34726953E-01
  8.13757326E-01  1.00000000E+00  1.83473713E-03  1.40373228E-02  6.88426223E-02
  2.32184443E-01  4.67941348E-01  3.62311985E-01 -1.19332420E-01 -1.60854152E-01
  1.14345644E+00  1.00000000E+00  1.00000000E+00  3.34946043E-02  2.34726953E-01
  8.13757326E-01  1.00000000E+00  3.34946043E-02  2.34726953E-01  8.13757326E-01
  1.00000000E+00  3.34946043E-02  2.34726953E-01  8.13757326E-01  1.00000000E+00
  1.83473713E-03  1.40373228E-02  6.88426223E-02  2.32184443E-01  4.67941348E-01
  3.62311985E-01 -1.19332420E-01 -1.60854152E-01  1.14345644E+00  1.00000000E+00
  1.00000000E+00  3.34946043E-02  2.34726953E-01  8.13757326E-01  1.00000000E+00
  1.83473713E-03  1.40373228E-02  6.88426223E-02  2.32184443E-01  4.67941348E-01
  3.62311985E-01 -1.19332420E-01 -1.60854152E-01  1.14345644E+00  1.00000000E+00
  1.00000000E+00  3.34946043E-02  2.34726953E-01  8.13757326E-01  1.00000000E+00
  3.34946043E-02  2.34726953E-01  8.13757326E-01  1.00000000E+00  3.34946043E-02
  2.34726953E-01  8.13757326E-01  1.00000000E+00  1.83473713E-03  1.40373228E-02
  6.88426223E-02  2.32184443E-01  4.67941348E-01  3.62311985E-01 -1.19332420E-01
 -1.60854152E-01  1.14345644E+00  1.00000000E+00  1.00000000E+00  3.34946043E-02
  2.34726953E-01  8.13757326E-01  1.00000000E+00  3.34946043E-02  2.34726953E-01
  8.13757326E-01  1.00000000E+00  3.34946043E-02  2.34726953E-01  8.13757326E-01
  1.00000000E+00
P(S=P) Contraction coefficients            R   N=         141
  0.00000000E+00  0.00000000E+00  0.00000000E+00  0.00000000E+00  0.00000000E+00
  0.00000000E+00  0.00000000E+00  0.00000000E+00  0.00000000E+00  0.00000000E+00
  6.89990666E-02  3.16423961E-01  7.44308291E-01  1.00000000E+00  0.00000000E+00
  0.00000000E+00  0.00000000E+00  0.00000000E+00  0.00000000E+00  0.00000000E+00
  0.00000000E+00  0.00000000E+00  0.00000000E+00  0.00000000E+00  0.00000000E+00
  6.89990666E-02  3.16423961E-01  7.44308291E-01  1.00000000E+00  0.00000000E+00
  0.00000000E+00  0.00000000E+00  0.00000000E+00  0.00000000E+00  0.00000000E+00
  0.00000000E+00  0.00000000E+00  0.00000000E+00  0.00000000E+00  0.00000000E+00
  6.89990666E-02  3.16423961E-01  7.44308291E-01  1.00000000E+00  0.00000000E+00
  0.00000000E+00  0.00000000E+00  0.00000000E+00  0.00000000E+00  0.00000000E+00
  0.00000000E+00  0.00000000E+00  0.00000000E+00  0.00000000E+00  0.00000000E+00
  0.00000000E+00  0.00000000E+00  0.00000000E+00  0.00000000E+00  0.00000000E+00
  0.00000000E+00  0.00000000E+00  0.00000000E+00  6.89990666E-02  3.16423961E-01
  7.44308291E-01  1.00000000E+00  0.00000000E+00  0.00000000E+00  0.00000000E+00
  0.00000000E+00  0.00000000E+00  0.00000000E+00  0.00000000E+00  0.00000000E+00
  0.00000000E+00  0.00000000E+00  0.00000000E+00  0.00000000E+00  0.00000000E+00
  0.00000000E+00  0.00000000E+00  0.00000000E+00  0.00000000E+00  0.00000000E+00
  0.00000000E+00  6.89990666E-02  3.16423961E-01  7.44308291E-01  1.00000000E+00
  0.00000000E+00  0.00000000E+00  0.00000000E+00  0.00000000E+00  0.00000000E+00
  0.00000000E+00  0.00000000E+00  0.00000000E+00  0.00000000E+00  0.00000000E+00
  0.00000000E+00  6.89990666E-02  3.16423961E-01  7.44308291E-01  1.00000000E+00
  0.00000000E+00  0.00000000E+00  0.00000000E+00  0.00000000E+00  0.00000000E+00
  0.00000000E+00  0.00000000E+00  0.00000000E+00  0.00000000E+00  0.00000000E+00
  0.00000000E+00  0.00000000E+00  0.00000000E+00  0.00000000E+00  0.00000000E+00
  0.00000000E+00  0.00000000E+00  0.00000000E+00  0.00000000E+00  6.89990666E-02
  3.16423961E-01  7.44308291E-01  1.00000000E+00  0.00000000E+00  0.00000000E+00
  0.00000000E+00  0.00000000E+00  0.00000000E+00  0.00000000E+00  0.00000000E+00
  0.00000000E+00  0.00000000E+00  0.00000000E+00  0.00000000E+00  0.00000000E+00
  0.00000000E+00
Coordinates of each shell                  R   N=         180
  0.00000000E+00  0.00000000E+00  0.00000000E+00  0.00000000E+00  0.00000000E+00
  0.00000000E+00  0.00000000E+00  0.00000000E+00  2.07869749E+00  0.00000000E+00
  0.00000000E+00  2.07869749E+00  0.00000000E+00  0.00000000E+00  2.07869749E+00
  0.00000000E+00  0.00000000E+00  2.07869749E+00 -2.23178658E-01 -1.93808008E+00
  2.77790171E+00 -2.23178658E-01 -1.93808008E+00  2.77790171E+00  2.51879309E+00
  1.08195100E+00  3.04247125E+00  2.51879309E+00  1.08195100E+00  3.04247125E+00
  2.51879309E+00  1.08195100E+00  3.04247125E+00  2.51879309E+00  1.08195100E+00
  3.04247125E+00  2.51877443E+00  1.08195100E+00  5.12117172E+00  2.51877443E+00
  1.08195100E+00  5.12117172E+00  4.72577947E+00 -5.44157409E-01  2.07873699E+00
  4.72577947E+00 -5.44157409E-01  2.07873699E+00  4.72577947E+00 -5.44157409E-01
  2.07873699E+00  4.72577947E+00 -5.44157409E-01  2.07873699E+00  6.52323484E+00
  2.30771635E-01  2.77794336E+00  6.52323484E+00  2.30771635E-01  2.77794336E+00
  4.48778493E+00 -2.49400466E+00  2.77793450E+00  4.48778493E+00 -2.49400466E+00
  2.77793450E+00  4.72577947E+00 -5.44157409E-01  3.94952760E-05  4.72577947E+00
 -5.44157409E-01  3.94952760E-05  2.83366985E+00  3.81652047E+00  2.07870605E+00
  2.83366985E+00  3.81652047E+00  2.07870605E+00  2.83366985E+00  3.81652047E+00
  2.07870605E+00  2.83366985E+00  3.81652047E+00  2.07870605E+00  4.63114565E+00
  4.59146486E+00  2.77792033E+00  4.63114565E+00  4.59146486E+00  2.77792033E+00
  2.83368851E+00  3.81652047E+00  5.57469207E-06  2.83368851E+00  3.81652047E+00
  5.57469207E-06  1.25937383E+00  4.97969541E+00  2.77789565E+00  1.25937383E+00
  4.97969541E+00  2.77789565E+00 -2.20700504E+00  1.62610840E+00  3.04243476E+00
 -2.20700504E+00  1.62610840E+00  3.04243476E+00 -2.20700504E+00  1.62610840E+00
  3.04243476E+00 -2.20700504E+00  1.62610840E+00  3.04243476E+00 -1.98076446E+00
  3.59075745E+00  2.36213075E+00 -1.98076446E+00  3.59075745E+00  2.36213075E+00
 -4.72579880E+00  5.44183771E-01  2.07865671E+00 -4.72579880E+00  5.44183771E-01
  2.07865671E+00 -4.72579880E+00  5.44183771E-01  2.07865671E+00 -4.72579880E+00
  5.44183771E-01  2.07865671E+00 -6.30009485E+00  1.70735871E+00  2.77784629E+00
 -6.30009485E+00  1.70735871E+00  2.77784629E+00 -4.72578015E+00  5.44183771E-01
 -4.37849543E-05 -4.72578015E+00  5.44183771E-01 -4.37849543E-05 -4.93722520E+00
 -1.40871592E+00  2.77786057E+00 -4.93722520E+00 -1.40871592E+00  2.77786057E+00
 -2.20701180E+00  1.62611455E+00  5.95261679E+00 -2.20701180E+00  1.62611455E+00
  5.95261679E+00 -2.20701180E+00  1.62611455E+00  5.95261679E+00 -2.20701180E+00
  1.62611455E+00  5.95261679E+00 -3.76651235E+00  2.80104129E+00  6.65180523E+00
 -3.76651235E+00  2.80104129E+00  6.65180523E+00 -2.43019220E+00 -3.11980895E-01
  6.65181016E+00 -2.43019220E+00 -3.11980895E-01  6.65181016E+00 -3.94742263E-01
  2.41279540E+00  6.65181905E+00 -3.94742263E-01  2.41279540E+00  6.65181905E+00
Num ILSW                                   I              100
ILSW                                       I   N=         100
           0           1           0           0           2           0
           0           0           0           0         402          -1
           5           0           0           0           0           0
           0           0           1           0           0           0
           1           1           0           0           0           0
           0           0      100000           0          -1           0
           0           0           0           0           0           0
           0           0           0           1           0           0
           0 -2000000000           1           0           0           0
           0           0           4          52           0           0
           0           0           5           0           0           0
           0           0           0           0           0           1
           0           0           0           0           0           0
           0           0           0           0           0           0
           0           0           0           0           0           0
           0           0           0           0           0           0
           0           0           0           0
Num RLSW                                   I               52
RLSW                                       R   N=          52
  8.00000000E-01  7.20000000E-01  1.00000000E+00  8.10000000E-01  2.00000000E-01
  0.00000000E+00  0.00000000E+00  1.00000000E+00  0.00000000E+00  0.00000000E+00
  0.00000000E+00  0.00000000E+00  1.00000000E+00  0.00000000E+00  0.00000000E+00
  0.00000000E+00  0.00000000E+00  1.00000000E+00  0.00000000E+00  0.00000000E+00
  0.00000000E+00  0.00000000E+00  1.00000000E+00  0.00000000E+00  0.00000000E+00
  0.00000000E+00  0.00000000E+00  1.00000000E+00  0.00000000E+00  0.00000000E+00
  0.00000000E+00  0.00000000E+00  1.00000000E+00  0.00000000E+00  0.00000000E+00
  0.00000000E+00  0.00000000E+00  0.00000000E+00  1.00000000E+00  1.00000000E+00
  0.00000000E+00  1.00000000E+00  0.00000000E+00  0.00000000E+00  0.00000000E+00
  0.00000000E+00  0.00000000E+00  0.00000000E+00  0.00000000E+00  0.00000000E+00
  0.00000000E+00  0.00000000E+00
MxBond                                     I                4
NBond                                      I   N=          23
           1           4           1           4           1           4
           1           1           1           4           1           1
           1           4           1           4           1           1
           1           4           1           1           1
IBond                                      I   N=          92
           2           0           0           0           1           3
           4          14           2           0           0           0
           2           5           6          10           4           0
           0           0           4           7           8           9
           6           0           0           0           6           0
           0           0           6           0           0           0
           4          11          12          13          10           0
           0           0          10           0           0           0
          10           0           0           0           2          15
          16          20          14           0           0           0
          14          17          18          19          16           0
           0           0          16           0           0           0
          16           0           0           0          14          21
          22          23          20           0           0           0
          20           0           0           0          20           0
           0           0
RBond                                      R   N=          92
  1.00000000E+00  0.00000000E+00  0.00000000E+00  0.00000000E+00  1.00000000E+00
  1.00000000E+00  1.00000000E+00  1.00000000E+00  1.00000000E+00  0.00000000E+00
  0.00000000E+00  0.00000000E+00  1.00000000E+00  1.00000000E+00  1.00000000E+00
  1.00000000E+00  1.00000000E+00  0.00000000E+00  0.00000000E+00  0.00000000E+00
  1.00000000E+00  1.00000000E+00  1.00000000E+00  1.00000000E+00  1.00000000E+00
  0.00000000E+00  0.00000000E+00  0.00000000E+00  1.00000000E+00  0.00000000E+00
  0.00000000E+00  0.00000000E+00  1.00000000E+00  0.00000000E+00  0.00000000E+00
  0.00000000E+00  1.00000000E+00  1.00000000E+00  1.00000000E+00  1.00000000E+00
  1.00000000E+00  0.00000000E+00  0.00000000E+00  0.00000000E+00  1.00000000E+00
  0.00000000E+00  0.00000000E+00  0.00000000E+00  1.00000000E+00  0.00000000E+00
  0.00000000E+00  0.00000000E+00  1.00000000E+00  1.00000000E+00  1.00000000E+00
  1.00000000E+00  1.00000000E+00  0.00000000E+00  0.00000000E+00  0.00000000E+00
  1.00000000E+00  1.00000000E+00  1.00000000E+00  1.00000000E+00  1.00000000E+00
  0.00000000E+00  0.00000000E+00  0.00000000E+00  1.00000000E+00  0.00000000E+00
  0.00000000E+00  0.00000000E+00  1.00000000E+00  0.00000000E+00  0.00000000E+00
  0.00000000E+00  1.00000000E+00  1.00000000E+00  1.00000000E+00  1.00000000E+00
  1.00000000E+00  0.00000000E+00  0.00000000E+00  0.00000000E+00  1.00000000E+00
  0.00000000E+00  0.00000000E+00  0.00000000E+00  1.00000000E+00  0.00000000E+00
  0.00000000E+00  0.00000000E+00
Virial Ratio                               R      2.010330411774243E+00
SCF Energy                                 R     -2.763885811033421E+02
Total Energy                               R     -2.763885811033421E+02
RMS Density                                R      2.902990047268083E-09
Job Status                                 I                1
Nuclear derivative order                   I                0
External E-field                           R   N=          35
  0.00000000E+00  0.00000000E+00  0.00000000E+00  0.00000000E+00  0.00000000E+00
  0.00000000E+00  0.00000000E+00  0.00000000E+00  0.00000000E+00  0.00000000E+00
  0.00000000E+00  0.00000000E+00  0.00000000E+00  0.00000000E+00  0.00000000E+00
  0.00000000E+00  0.00000000E+00  0.00000000E+00  0.00000000E+00  0.00000000E+00
  0.00000000E+00  0.00000000E+00  0.00000000E+00  0.00000000E+00  0.00000000E+00
  0.00000000E+00  0.00000000E+00  0.00000000E+00  0.00000000E+00  0.00000000E+00
  0.00000000E+00  0.00000000E+00  0.00000000E+00  0.00000000E+00  0.00000000E+00
IOpCl                                      I                0
IROHF                                      I                0
Alpha Orbital Energies                     R   N=         137
 -1.01800217E+01 -1.01792778E+01 -1.01700462E+01 -1.01688840E+01 -1.01686643E+01
 -1.01685905E+01 -1.01684088E+01 -8.18131836E-01 -7.67242342E-01 -6.76881490E-01
 -6.72184431E-01 -6.66908816E-01 -5.69501699E-01 -5.39041604E-01 -4.73333155E-01
 -4.46519589E-01 -4.32071721E-01 -4.24449654E-01 -3.94229458E-01 -3.93702010E-01
 -3.79800474E-01 -3.78715153E-01 -3.62721501E-01 -3.47166523E-01 -3.39427497E-01
 -3.24784412E-01 -3.10531710E-01 -3.03010926E-01 -2.91397912E-01  8.25178778E-02
  1.07430083E-01  1.19179714E-01  1.19664160E-01  1.46421613E-01  1.50912429E-01
  1.54439605E-01  1.57974865E-01  1.70646156E-01  1.78760132E-01  1.87382079E-01
  1.96768687E-01  2.05699222E-01  2.22392380E-01  2.24590627E-01  2.34876635E-01
  2.46688644E-01  2.53034601E-01  2.57185611E-01  2.66429518E-01  2.82513899E-01
  2.93901443E-01  4.97951687E-01  5.17457472E-01  5.21095431E-01  5.27753668E-01
  5.29200870E-01  5.44019747E-01  5.92453272E-01  6.11931522E-01  6.42163045E-01
  6.46364249E-01  6.78985298E-01  6.91159720E-01  7.10623752E-01  7.23079642E-01
  7.45113607E-01  7.63047057E-01  7.79982523E-01  8.18993004E-01  8.44775636E-01
  8.61243597E-01  8.86877195E-01  8.93639141E-01  9.03511914E-01  9.09080806E-01
  9.11780515E-01  9.15886843E-01  9.23646550E-01  9.27636496E-01  9.46740033E-01
  9.60978240E-01  9.62945843E-01  9.83355206E-01  9.92782343E-01  9.98440622E-01
  1.00996284E+00  1.01298329E+00  1.09412987E+00  1.13866968E+00  1.28608934E+00
  1.38626852E+00  1.40373580E+00  1.46798238E+00  1.47273298E+00  1.51527172E+00
  1.58298524E+00  1.63739461E+00  1.68132221E+00  1.73129231E+00  1.78573402E+00
  1.80228871E+00  1.84462758E+00  1.86484587E+00  1.86798024E+00  1.91106583E+00
  1.93799647E+00  1.99586037E+00  2.00713657E+00  2.04139707E+00  2.05266553E+00
  2.08751647E+00  2.13737749E+00  2.14605749E+00  2.19039289E+00  2.23509218E+00
  2.23582185E+00  2.24461573E+00  2.24711442E+00  2.25544829E+00  2.27540778E+00
  2.39305186E+00  2.42941531E+00  2.48720522E+00  2.49143050E+00  2.54371355E+00
  2.54782011E+00  2.68120290E+00  2.69028605E+00  2.79998218E+00  2.84598273E+00
  4.14456860E+00  4.21803403E+00  4.29039912E+00  4.30372536E+00  4.39587747E+00