CHPr2_transform_new_1 0.0                                               
SP        RB3LYP                                                      6-31G(d)            
Number of atoms                            I               23
Info1-9                                    I   N=           9
          32          32           0           0           0         110
           1          18        -502
Full Title                                 C   N=           3
CHPr2_transform_new_1 0.0           
Route                                      C   N=           2
# nosymm b3lyp/6-31G*   
Charge                                     I                0
Multiplicity                               I                1
Number of electrons                        I               58
Number of alpha electrons                  I               29
Number of beta electrons                   I               29
Number of basis functions                  I              137
Number of independent functions            I              137
Number of point charges in /Mol/           I                0
Number of translation vectors              I                0
Atomic numbers                             I   N=          23
           1           6           1           6           1           1
           6           1           1           6           1           1
           1           6           1           1           6           1
           1           6           1           1           1
Nuclear charges                            R   N=          23
  1.00000000E+00  6.00000000E+00  1.00000000E+00  6.00000000E+00  1.00000000E+00
  1.00000000E+00  6.00000000E+00  1.00000000E+00  1.00000000E+00  6.00000000E+00
  1.00000000E+00  1.00000000E+00  1.00000000E+00  6.00000000E+00  1.00000000E+00
  1.00000000E+00  6.00000000E+00  1.00000000E+00  1.00000000E+00  6.00000000E+00
  1.00000000E+00  1.00000000E+00  1.00000000E+00
Current cartesian coordinates              R   N=          69
  0.00000000E+00  0.00000000E+00  0.00000000E+00  0.00000000E+00  0.00000000E+00
  2.07869447E+00  5.71273788E-01 -1.86538564E+00  2.77790228E+00  1.87510144E+00
  1.99971461E+00  3.04245375E+00  3.78338175E+00  1.56397238E+00  2.36215212E+00
  1.29599455E+00  3.89065592E+00  2.36213526E+00  1.87510741E+00  1.99972463E+00
  5.95262148E+00 -4.98697024E-02  2.44434069E+00  6.65183405E+00  2.44638120E+00
  1.34339005E-01  6.65182929E+00  3.73352950E+00  4.00831307E+00  6.93529890E+00
  3.73351204E+00  4.00831307E+00  9.01398617E+00  5.64179135E+00  3.57255969E+00
  6.23610513E+00  3.17109181E+00  5.89038353E+00  6.23608678E+00 -2.67336805E+00
  6.06709441E-01  3.04245059E+00 -4.01034596E+00 -8.22925782E-01  2.36213316E+00
 -2.67338551E+00  6.06709441E-01  5.12113784E+00 -3.47942754E+00  3.23870273E+00
  2.07867476E+00 -2.14244413E+00  4.66833435E+00  2.77786622E+00 -3.47942302E+00
  3.23868798E+00 -3.06135632E-05 -6.14393640E+00  3.86210879E+00  3.04242017E+00
 -6.71522047E+00  5.72748200E+00  2.36212455E+00 -7.48977350E+00  2.41577697E+00
  2.36211346E+00 -6.14394203E+00  3.86209700E+00  5.12112828E+00
Number of symbols in /Mol/                 I                0
Force Field                                I                0
Atom Types                                 C   N=          23
                                                            
                                                            
                                                            
                                                            
                                    
Int Atom Types                             I   N=          23
           0           0           0           0           0           0
           0           0           0           0           0           0
           0           0           0           0           0           0
           0           0           0           0           0
MM charges                                 R   N=          23
  0.00000000E+00  0.00000000E+00  0.00000000E+00  0.00000000E+00  0.00000000E+00
  0.00000000E+00  0.00000000E+00  0.00000000E+00  0.00000000E+00  0.00000000E+00
  0.00000000E+00  0.00000000E+00  0.00000000E+00  0.00000000E+00  0.00000000E+00
  0.00000000E+00  0.00000000E+00  0.00000000E+00  0.00000000E+00  0.00000000E+00
  0.00000000E+00  0.00000000E+00  0.00000000E+00
Integer atomic weights                     I   N=          23
           1          12           1          12           1           1
          12           1           1          12           1           1
           1          12           1           1          12           1
           1          12           1           1           1
Real atomic weights                        R   N=          23
  1.00782504E+00  1.20000000E+01  1.00782504E+00  1.20000000E+01  1.00782504E+00
  1.00782504E+00  1.20000000E+01  1.00782504E+00  1.00782504E+00  1.20000000E+01
  1.00782504E+00  1.00782504E+00  1.00782504E+00  1.20000000E+01  1.00782504E+00
  1.00782504E+00  1.20000000E+01  1.00782504E+00  1.00782504E+00  1.20000000E+01
  1.00782504E+00  1.00782504E+00  1.00782504E+00
Atom fragment info                         I   N=          23
           0           0           0           0           0           0
           0           0           0           0           0           0
           0           0           0           0           0           0
           0           0           0           0           0
Atom residue num                           I   N=          23
           0           0           0           0           0           0
           0           0           0           0           0           0
           0           0           0           0           0           0
           0           0           0           0           0
Nuclear spins                              I   N=          23
           1           0           1           0           1           1
           0           1           1           0           1           1
           1           0           1           1           0           1
           1           0           1           1           1
Nuclear ZEff                               R   N=          23
 -1.00000000E+00 -3.60000000E+00 -1.00000000E+00 -3.60000000E+00 -1.00000000E+00
 -1.00000000E+00 -3.60000000E+00 -1.00000000E+00 -1.00000000E+00 -3.60000000E+00
 -1.00000000E+00 -1.00000000E+00 -1.00000000E+00 -3.60000000E+00 -1.00000000E+00
 -1.00000000E+00 -3.60000000E+00 -1.00000000E+00 -1.00000000E+00 -3.60000000E+00
 -1.00000000E+00 -1.00000000E+00 -1.00000000E+00
Nuclear ZNuc                               R   N=          23
  1.00000000E+00  6.00000000E+00  1.00000000E+00  6.00000000E+00  1.00000000E+00
  1.00000000E+00  6.00000000E+00  1.00000000E+00  1.00000000E+00  6.00000000E+00
  1.00000000E+00  1.00000000E+00  1.00000000E+00  6.00000000E+00  1.00000000E+00
  1.00000000E+00  6.00000000E+00  1.00000000E+00  1.00000000E+00  6.00000000E+00
  1.00000000E+00  1.00000000E+00  1.00000000E+00
Nuclear QMom                               R   N=          23
  0.00000000E+00  0.00000000E+00  0.00000000E+00  0.00000000E+00  0.00000000E+00
  0.00000000E+00  0.00000000E+00  0.00000000E+00  0.00000000E+00  0.00000000E+00
  0.00000000E+00  0.00000000E+00  0.00000000E+00  0.00000000E+00  0.00000000E+00
  0.00000000E+00  0.00000000E+00  0.00000000E+00  0.00000000E+00  0.00000000E+00
  0.00000000E+00  0.00000000E+00  0.00000000E+00
Nuclear GFac                               R   N=          23
  2.79284600E+00  0.00000000E+00  2.79284600E+00  0.00000000E+00  2.79284600E+00
  2.79284600E+00  0.00000000E+00  2.79284600E+00  2.79284600E+00  0.00000000E+00
  2.79284600E+00  2.79284600E+00  2.79284600E+00  0.00000000E+00  2.79284600E+00
  2.79284600E+00  0.00000000E+00  2.79284600E+00  2.79284600E+00  0.00000000E+00
  2.79284600E+00  2.79284600E+00  2.79284600E+00
MicOpt                                     I   N=          23
          -1          -1          -1          -1          -1          -1
          -1          -1          -1          -1          -1          -1
          -1          -1          -1          -1          -1          -1
          -1          -1          -1          -1          -1
Number of residues                         I                0
Number of secondary structures             I                0
Number of contracted shells                I               60
Number of primitive shells                 I              141
Pure/Cartesian d shells                    I                1
Pure/Cartesian f shells                    I                0
Highest angular momentum                   I                2
Largest degree of contraction              I                6
Shell types                                I   N=          60
           0           0           0          -1          -1           2
           0           0           0          -1          -1           2
           0           0           0           0           0          -1
          -1           2           0           0           0           0
           0          -1          -1           2           0           0
           0           0           0           0           0          -1
          -1           2           0           0           0           0
           0          -1          -1           2           0           0
           0           0           0          -1          -1           2
           0           0           0           0           0           0
Number of primitives per shell             I   N=          60
           3           1           6           3           1           1
           3           1           6           3           1           1
           3           1           3           1           6           3
           1           1           3           1           3           1
           6           3           1           1           3           1
           3           1           3           1           6           3
           1           1           3           1           3           1
           6           3           1           1           3           1
           3           1           6           3           1           1
           3           1           3           1           3           1
Shell to atom map                          I   N=          60
           1           1           2           2           2           2
           3           3           4           4           4           4
           5           5           6           6           7           7
           7           7           8           8           9           9
          10          10          10          10          11          11
          12          12          13          13          14          14
          14          14          15          15          16          16
          17          17          17          17          18          18
          19          19          20          20          20          20
          21          21          22          22          23          23
Primitive exponents                        R   N=         141
  1.87311370E+01  2.82539436E+00  6.40121692E-01  1.61277759E-01  3.04752488E+03
  4.57369518E+02  1.03948685E+02  2.92101553E+01  9.28666296E+00  3.16392696E+00
  7.86827235E+00  1.88128854E+00  5.44249258E-01  1.68714478E-01  8.00000000E-01
  1.87311370E+01  2.82539436E+00  6.40121692E-01  1.61277759E-01  3.04752488E+03
  4.57369518E+02  1.03948685E+02  2.92101553E+01  9.28666296E+00  3.16392696E+00
  7.86827235E+00  1.88128854E+00  5.44249258E-01  1.68714478E-01  8.00000000E-01
  1.87311370E+01  2.82539436E+00  6.40121692E-01  1.61277759E-01  1.87311370E+01
  2.82539436E+00  6.40121692E-01  1.61277759E-01  3.04752488E+03  4.57369518E+02
  1.03948685E+02  2.92101553E+01  9.28666296E+00  3.16392696E+00  7.86827235E+00
  1.88128854E+00  5.44249258E-01  1.68714478E-01  8.00000000E-01  1.87311370E+01
  2.82539436E+00  6.40121692E-01  1.61277759E-01  1.87311370E+01  2.82539436E+00
  6.40121692E-01  1.61277759E-01  3.04752488E+03  4.57369518E+02  1.03948685E+02
  2.92101553E+01  9.28666296E+00  3.16392696E+00  7.86827235E+00  1.88128854E+00
  5.44249258E-01  1.68714478E-01  8.00000000E-01  1.87311370E+01  2.82539436E+00
  6.40121692E-01  1.61277759E-01  1.87311370E+01  2.82539436E+00  6.40121692E-01
  1.61277759E-01  1.87311370E+01  2.82539436E+00  6.40121692E-01  1.61277759E-01
  3.04752488E+03  4.57369518E+02  1.03948685E+02  2.92101553E+01  9.28666296E+00
  3.16392696E+00  7.86827235E+00  1.88128854E+00  5.44249258E-01  1.68714478E-01
  8.00000000E-01  1.87311370E+01  2.82539436E+00  6.40121692E-01  1.61277759E-01
  1.87311370E+01  2.82539436E+00  6.40121692E-01  1.61277759E-01  3.04752488E+03
  4.57369518E+02  1.03948685E+02  2.92101553E+01  9.28666296E+00  3.16392696E+00
  7.86827235E+00  1.88128854E+00  5.44249258E-01  1.68714478E-01  8.00000000E-01
  1.87311370E+01  2.82539436E+00  6.40121692E-01  1.61277759E-01  1.87311370E+01
  2.82539436E+00  6.40121692E-01  1.61277759E-01  3.04752488E+03  4.57369518E+02
  1.03948685E+02  2.92101553E+01  9.28666296E+00  3.16392696E+00  7.86827235E+00
  1.88128854E+00  5.44249258E-01  1.68714478E-01  8.00000000E-01  1.87311370E+01
  2.82539436E+00  6.40121692E-01  1.61277759E-01  1.87311370E+01  2.82539436E+00
  6.40121692E-01  1.61277759E-01  1.87311370E+01  2.82539436E+00  6.40121692E-01
  1.61277759E-01
Contraction coefficients                   R   N=         141
  3.34946043E-02  2.34726953E-01  8.13757326E-01  1.00000000E+00  1.83473713E-03
  1.40373228E-02  6.88426223E-02  2.32184443E-01  4.67941348E-01  3.62311985E-01
 -1.19332420E-01 -1.60854152E-01  1.14345644E+00  1.00000000E+00  1.00000000E+00
  3.34946043E-02  2.34726953E-01  8.13757326E-01  1.00000000E+00  1.83473713E-03
  1.40373228E-02  6.88426223E-02  2.32184443E-01  4.67941348E-01  3.62311985E-01
 -1.19332420E-01 -1.60854152E-01  1.14345644E+00  1.00000000E+00  1.00000000E+00
  3.34946043E-02  2.34726953E-01  8.13757326E-01  1.00000000E+00  3.34946043E-02
  2.34726953E-01  8.13757326E-01  1.00000000E+00  1.83473713E-03  1.40373228E-02
  6.88426223E-02  2.32184443E-01  4.67941348E-01  3.62311985E-01 -1.19332420E-01
 -1.60854152E-01  1.14345644E+00  1.00000000E+00  1.00000000E+00  3.34946043E-02
  2.34726953E-01  8.13757326E-01  1.00000000E+00  3.34946043E-02  2.34726953E-01
  8.13757326E-01  1.00000000E+00  1.83473713E-03  1.40373228E-02  6.88426223E-02
  2.32184443E-01  4.67941348E-01  3.62311985E-01 -1.19332420E-01 -1.60854152E-01
  1.14345644E+00  1.00000000E+00  1.00000000E+00  3.34946043E-02  2.34726953E-01
  8.13757326E-01  1.00000000E+00  3.34946043E-02  2.34726953E-01  8.13757326E-01
  1.00000000E+00  3.34946043E-02  2.34726953E-01  8.13757326E-01  1.00000000E+00
  1.83473713E-03  1.40373228E-02  6.88426223E-02  2.32184443E-01  4.67941348E-01
  3.62311985E-01 -1.19332420E-01 -1.60854152E-01  1.14345644E+00  1.00000000E+00
  1.00000000E+00  3.34946043E-02  2.34726953E-01  8.13757326E-01  1.00000000E+00
  3.34946043E-02  2.34726953E-01  8.13757326E-01  1.00000000E+00  1.83473713E-03
  1.40373228E-02  6.88426223E-02  2.32184443E-01  4.67941348E-01  3.62311985E-01
 -1.19332420E-01 -1.60854152E-01  1.14345644E+00  1.00000000E+00  1.00000000E+00
  3.34946043E-02  2.34726953E-01  8.13757326E-01  1.00000000E+00  3.34946043E-02
  2.34726953E-01  8.13757326E-01  1.00000000E+00  1.83473713E-03  1.40373228E-02
  6.88426223E-02  2.32184443E-01  4.67941348E-01  3.62311985E-01 -1.19332420E-01
 -1.60854152E-01  1.14345644E+00  1.00000000E+00  1.00000000E+00  3.34946043E-02
  2.34726953E-01  8.13757326E-01  1.00000000E+00  3.34946043E-02  2.34726953E-01
  8.13757326E-01  1.00000000E+00  3.34946043E-02  2.34726953E-01  8.13757326E-01
  1.00000000E+00
P(S=P) Contraction coefficients            R   N=         141
  0.00000000E+00  0.00000000E+00  0.00000000E+00  0.00000000E+00  0.00000000E+00
  0.00000000E+00  0.00000000E+00  0.00000000E+00  0.00000000E+00  0.00000000E+00
  6.89990666E-02  3.16423961E-01  7.44308291E-01  1.00000000E+00  0.00000000E+00
  0.00000000E+00  0.00000000E+00  0.00000000E+00  0.00000000E+00  0.00000000E+00
  0.00000000E+00  0.00000000E+00  0.00000000E+00  0.00000000E+00  0.00000000E+00
  6.89990666E-02  3.16423961E-01  7.44308291E-01  1.00000000E+00  0.00000000E+00
  0.00000000E+00  0.00000000E+00  0.00000000E+00  0.00000000E+00  0.00000000E+00
  0.00000000E+00  0.00000000E+00  0.00000000E+00  0.00000000E+00  0.00000000E+00
  0.00000000E+00  0.00000000E+00  0.00000000E+00  0.00000000E+00  6.89990666E-02
  3.16423961E-01  7.44308291E-01  1.00000000E+00  0.00000000E+00  0.00000000E+00
  0.00000000E+00  0.00000000E+00  0.00000000E+00  0.00000000E+00  0.00000000E+00
  0.00000000E+00  0.00000000E+00  0.00000000E+00  0.00000000E+00  0.00000000E+00
  0.00000000E+00  0.00000000E+00  0.00000000E+00  6.89990666E-02  3.16423961E-01
  7.44308291E-01  1.00000000E+00  0.00000000E+00  0.00000000E+00  0.00000000E+00
  0.00000000E+00  0.00000000E+00  0.00000000E+00  0.00000000E+00  0.00000000E+00
  0.00000000E+00  0.00000000E+00  0.00000000E+00  0.00000000E+00  0.00000000E+00
  0.00000000E+00  0.00000000E+00  0.00000000E+00  0.00000000E+00  0.00000000E+00
  0.00000000E+00  6.89990666E-02  3.16423961E-01  7.44308291E-01  1.00000000E+00
  0.00000000E+00  0.00000000E+00  0.00000000E+00  0.00000000E+00  0.00000000E+00
  0.00000000E+00  0.00000000E+00  0.00000000E+00  0.00000000E+00  0.00000000E+00
  0.00000000E+00  0.00000000E+00  0.00000000E+00  0.00000000E+00  0.00000000E+00
  6.89990666E-02  3.16423961E-01  7.44308291E-01  1.00000000E+00  0.00000000E+00
  0.00000000E+00  0.00000000E+00  0.00000000E+00  0.00000000E+00  0.00000000E+00
  0.00000000E+00  0.00000000E+00  0.00000000E+00  0.00000000E+00  0.00000000E+00
  0.00000000E+00  0.00000000E+00  0.00000000E+00  0.00000000E+00  6.89990666E-02
  3.16423961E-01  7.44308291E-01  1.00000000E+00  0.00000000E+00  0.00000000E+00
  0.00000000E+00  0.00000000E+00  0.00000000E+00  0.00000000E+00  0.00000000E+00
  0.00000000E+00  0.00000000E+00  0.00000000E+00  0.00000000E+00  0.00000000E+00
  0.00000000E+00
Coordinates of each shell                  R   N=         180
  0.00000000E+00  0.00000000E+00  0.00000000E+00  0.00000000E+00  0.00000000E+00
  0.00000000E+00  0.00000000E+00  0.00000000E+00  2.07869447E+00  0.00000000E+00
  0.00000000E+00  2.07869447E+00  0.00000000E+00  0.00000000E+00  2.07869447E+00
  0.00000000E+00  0.00000000E+00  2.07869447E+00  5.71273788E-01 -1.86538564E+00
  2.77790228E+00  5.71273788E-01 -1.86538564E+00  2.77790228E+00  1.87510144E+00
  1.99971461E+00  3.04245375E+00  1.87510144E+00  1.99971461E+00  3.04245375E+00
  1.87510144E+00  1.99971461E+00  3.04245375E+00  1.87510144E+00  1.99971461E+00
  3.04245375E+00  3.78338175E+00  1.56397238E+00  2.36215212E+00  3.78338175E+00
  1.56397238E+00  2.36215212E+00  1.29599455E+00  3.89065592E+00  2.36213526E+00
  1.29599455E+00  3.89065592E+00  2.36213526E+00  1.87510741E+00  1.99972463E+00
  5.95262148E+00  1.87510741E+00  1.99972463E+00  5.95262148E+00  1.87510741E+00
  1.99972463E+00  5.95262148E+00  1.87510741E+00  1.99972463E+00  5.95262148E+00
 -4.98697024E-02  2.44434069E+00  6.65183405E+00 -4.98697024E-02  2.44434069E+00
  6.65183405E+00  2.44638120E+00  1.34339005E-01  6.65182929E+00  2.44638120E+00
  1.34339005E-01  6.65182929E+00  3.73352950E+00  4.00831307E+00  6.93529890E+00
  3.73352950E+00  4.00831307E+00  6.93529890E+00  3.73352950E+00  4.00831307E+00
  6.93529890E+00  3.73352950E+00  4.00831307E+00  6.93529890E+00  3.73351204E+00
  4.00831307E+00  9.01398617E+00  3.73351204E+00  4.00831307E+00  9.01398617E+00
  5.64179135E+00  3.57255969E+00  6.23610513E+00  5.64179135E+00  3.57255969E+00
  6.23610513E+00  3.17109181E+00  5.89038353E+00  6.23608678E+00  3.17109181E+00
  5.89038353E+00  6.23608678E+00 -2.67336805E+00  6.06709441E-01  3.04245059E+00
 -2.67336805E+00  6.06709441E-01  3.04245059E+00 -2.67336805E+00  6.06709441E-01
  3.04245059E+00 -2.67336805E+00  6.06709441E-01  3.04245059E+00 -4.01034596E+00
 -8.22925782E-01  2.36213316E+00 -4.01034596E+00 -8.22925782E-01  2.36213316E+00
 -2.67338551E+00  6.06709441E-01  5.12113784E+00 -2.67338551E+00  6.06709441E-01
  5.12113784E+00 -3.47942754E+00  3.23870273E+00  2.07867476E+00 -3.47942754E+00
  3.23870273E+00  2.07867476E+00 -3.47942754E+00  3.23870273E+00  2.07867476E+00
 -3.47942754E+00  3.23870273E+00  2.07867476E+00 -2.14244413E+00  4.66833435E+00
  2.77786622E+00 -2.14244413E+00  4.66833435E+00  2.77786622E+00 -3.47942302E+00
  3.23868798E+00 -3.06135632E-05 -3.47942302E+00  3.23868798E+00 -3.06135632E-05
 -6.14393640E+00  3.86210879E+00  3.04242017E+00 -6.14393640E+00  3.86210879E+00
  3.04242017E+00 -6.14393640E+00  3.86210879E+00  3.04242017E+00 -6.14393640E+00
  3.86210879E+00  3.04242017E+00 -6.71522047E+00  5.72748200E+00  2.36212455E+00
 -6.71522047E+00  5.72748200E+00  2.36212455E+00 -7.48977350E+00  2.41577697E+00
  2.36211346E+00 -7.48977350E+00  2.41577697E+00  2.36211346E+00 -6.14394203E+00
  3.86209700E+00  5.12112828E+00 -6.14394203E+00  3.86209700E+00  5.12112828E+00
Num ILSW                                   I              100
ILSW                                       I   N=         100
           0           1           0           0           2           0
           0           0           0           0         402          -1
           5           0           0           0           0           0
           0           0           1           0           0           0
           1           1           0           0           0           0
           0           0      100000           0          -1           0
           0           0           0           0           0           0
           0           0           0           1           0           0
           0 -2000000000           1           0           0           0
           0           0           4          52           0           0
           0           0           5           0           0           0
           0           0           0           0           0           1
           0           0           0           0           0           0
           0           0           0           0           0           0
           0           0           0           0           0           0
           0           0           0           0           0           0
           0           0           0           0
Num RLSW                                   I               52
RLSW                                       R   N=          52
  8.00000000E-01  7.20000000E-01  1.00000000E+00  8.10000000E-01  2.00000000E-01
  0.00000000E+00  0.00000000E+00  1.00000000E+00  0.00000000E+00  0.00000000E+00
  0.00000000E+00  0.00000000E+00  1.00000000E+00  0.00000000E+00  0.00000000E+00
  0.00000000E+00  0.00000000E+00  1.00000000E+00  0.00000000E+00  0.00000000E+00
  0.00000000E+00  0.00000000E+00  1.00000000E+00  0.00000000E+00  0.00000000E+00
  0.00000000E+00  0.00000000E+00  1.00000000E+00  0.00000000E+00  0.00000000E+00
  0.00000000E+00  0.00000000E+00  1.00000000E+00  0.00000000E+00  0.00000000E+00
  0.00000000E+00  0.00000000E+00  0.00000000E+00  1.00000000E+00  1.00000000E+00
  0.00000000E+00  1.00000000E+00  0.00000000E+00  0.00000000E+00  0.00000000E+00
  0.00000000E+00  0.00000000E+00  0.00000000E+00  0.00000000E+00  0.00000000E+00
  0.00000000E+00  0.00000000E+00
MxBond                                     I                4
NBond                                      I   N=          23
           1           4           1           4           1           1
           4           1           1           4           1           1
           1           4           1           1           4           1
           1           4           1           1           1
IBond                                      I   N=          92
           2           0           0           0           1           3
           4          14           2           0           0           0
           2           5           6           7           4           0
           0           0           4           0           0           0
           4           8           9          10           7           0
           0           0           7           0           0           0
           7          11          12          13          10           0
           0           0          10           0           0           0
          10           0           0           0           2          15
          16          17          14           0           0           0
          14           0           0           0          14          18
          19          20          17           0           0           0
          17           0           0           0          17          21
          22          23          20           0           0           0
          20           0           0           0          20           0
           0           0
RBond                                      R   N=          92
  1.00000000E+00  0.00000000E+00  0.00000000E+00  0.00000000E+00  1.00000000E+00
  1.00000000E+00  1.00000000E+00  1.00000000E+00  1.00000000E+00  0.00000000E+00
  0.00000000E+00  0.00000000E+00  1.00000000E+00  1.00000000E+00  1.00000000E+00
  1.00000000E+00  1.00000000E+00  0.00000000E+00  0.00000000E+00  0.00000000E+00
  1.00000000E+00  0.00000000E+00  0.00000000E+00  0.00000000E+00  1.00000000E+00
  1.00000000E+00  1.00000000E+00  1.00000000E+00  1.00000000E+00  0.00000000E+00
  0.00000000E+00  0.00000000E+00  1.00000000E+00  0.00000000E+00  0.00000000E+00
  0.00000000E+00  1.00000000E+00  1.00000000E+00  1.00000000E+00  1.00000000E+00
  1.00000000E+00  0.00000000E+00  0.00000000E+00  0.00000000E+00  1.00000000E+00
  0.00000000E+00  0.00000000E+00  0.00000000E+00  1.00000000E+00  0.00000000E+00
  0.00000000E+00  0.00000000E+00  1.00000000E+00  1.00000000E+00  1.00000000E+00
  1.00000000E+00  1.00000000E+00  0.00000000E+00  0.00000000E+00  0.00000000E+00
  1.00000000E+00  0.00000000E+00  0.00000000E+00  0.00000000E+00  1.00000000E+00
  1.00000000E+00  1.00000000E+00  1.00000000E+00  1.00000000E+00  0.00000000E+00
  0.00000000E+00  0.00000000E+00  1.00000000E+00  0.00000000E+00  0.00000000E+00
  0.00000000E+00  1.00000000E+00  1.00000000E+00  1.00000000E+00  1.00000000E+00
  1.00000000E+00  0.00000000E+00  0.00000000E+00  0.00000000E+00  1.00000000E+00
  0.00000000E+00  0.00000000E+00  0.00000000E+00  1.00000000E+00  0.00000000E+00
  0.00000000E+00  0.00000000E+00
Virial Ratio                               R      2.010339075293169E+00
SCF Energy                                 R     -2.763858789610648E+02
Total Energy                               R     -2.763858789610648E+02
RMS Density                                R      3.110309857083795E-09
Job Status                                 I                1
Nuclear derivative order                   I                0
External E-field                           R   N=          35
  0.00000000E+00  0.00000000E+00  0.00000000E+00  0.00000000E+00  0.00000000E+00
  0.00000000E+00  0.00000000E+00  0.00000000E+00  0.00000000E+00  0.00000000E+00
  0.00000000E+00  0.00000000E+00  0.00000000E+00  0.00000000E+00  0.00000000E+00
  0.00000000E+00  0.00000000E+00  0.00000000E+00  0.00000000E+00  0.00000000E+00
  0.00000000E+00  0.00000000E+00  0.00000000E+00  0.00000000E+00  0.00000000E+00
  0.00000000E+00  0.00000000E+00  0.00000000E+00  0.00000000E+00  0.00000000E+00
  0.00000000E+00  0.00000000E+00  0.00000000E+00  0.00000000E+00  0.00000000E+00
IOpCl                                      I                0
IROHF                                      I                0
Alpha Orbital Energies                     R   N=         137
 -1.01752007E+01 -1.01746487E+01 -1.01718091E+01 -1.01711711E+01 -1.01709375E+01
 -1.01702631E+01 -1.01696048E+01 -8.08800048E-01 -7.67523464E-01 -7.22443550E-01
 -6.61239779E-01 -6.08781751E-01 -5.88415215E-01 -5.43732179E-01 -4.78431897E-01
 -4.55193051E-01 -4.27275262E-01 -4.17576483E-01 -4.14441385E-01 -4.03733350E-01
 -3.66858054E-01 -3.65200762E-01 -3.53870360E-01 -3.43875733E-01 -3.37611666E-01
 -3.20290981E-01 -3.06604366E-01 -3.03061001E-01 -2.98332671E-01  8.14022526E-02
  1.09314446E-01  1.10202941E-01  1.20277548E-01  1.32435021E-01  1.51484415E-01
  1.64551474E-01  1.76415970E-01  1.77300769E-01  1.80893659E-01  1.89767492E-01
  1.92867983E-01  1.94754276E-01  2.12266597E-01  2.24858459E-01  2.33447880E-01
  2.35771554E-01  2.48258255E-01  2.63394059E-01  2.66404540E-01  2.77890373E-01
  2.81306605E-01  5.05176611E-01  5.22782984E-01  5.25315439E-01  5.28332581E-01
  5.60140909E-01  5.61921753E-01  5.79363148E-01  5.87792036E-01  6.03636127E-01
  6.60974373E-01  6.63706126E-01  6.66897412E-01  6.78903597E-01  6.88924321E-01
  7.22182364E-01  7.38454531E-01  7.94329921E-01  8.19920759E-01  8.55319557E-01
  8.59424721E-01  8.72575516E-01  8.87199568E-01  8.91328097E-01  8.92170711E-01
  9.13709411E-01  9.17771538E-01  9.24708310E-01  9.40991026E-01  9.50446156E-01
  9.66255863E-01  9.80915127E-01  9.85456749E-01  9.94138833E-01  9.96984358E-01
  1.00536216E+00  1.01720863E+00  1.08283810E+00  1.19720985E+00  1.25089646E+00
  1.37304536E+00  1.41178986E+00  1.43008154E+00  1.47140431E+00  1.53397632E+00
  1.57277296E+00  1.58464997E+00  1.64371600E+00  1.70631543E+00  1.70747239E+00
  1.80436536E+00  1.86197254E+00  1.89779359E+00  1.90414870E+00  1.94513621E+00
  1.95407834E+00  1.96761674E+00  1.99267782E+00  1.99523028E+00  2.01565919E+00
  2.05670794E+00  2.07555499E+00  2.16087280E+00  2.17038549E+00  2.23223173E+00
  2.24290868E+00  2.29459407E+00  2.29756686E+00  2.35340818E+00  2.35522282E+00
  2.36293349E+00  2.39504369E+00  2.43803000E+00  2.45086428E+00  2.53889426E+00
  2.56029113E+00  2.65034523E+00  2.67364451E+00  2.74154370E+00  2.84184408E+00
  4.12868714E+00  4.17848923E+00  4.27454897E+00  4.35175302E+00  4.42489683E+00