37
mol_0106_0001.log	Energy: -824755.0457668
C         -0.94578        3.36736        0.28106
C         -0.49292        2.11547        0.27805
C         -0.57099        1.21117       -0.92167
N         -1.53554        0.12121       -0.70534
C         -2.85700        0.35266       -1.05919
O         -3.22125        1.31606       -1.69895
C         -3.81527       -0.69552       -0.51748
C         -4.84511       -0.03869        0.41958
C         -4.23020        0.72771        1.58891
S         -2.77893       -1.96373        0.27520
C         -1.28619       -1.03662        0.03748
N         -0.21422       -1.49872        0.52703
C          1.09179       -1.04728        0.34705
C          1.78193       -1.31038       -0.84682
C          3.10229       -0.91403       -0.98938
C          3.76418       -0.26230        0.05633
C          5.17223        0.14746       -0.14928
O          5.80750       -0.02976       -1.16703
O          5.71200        0.75942        0.92710
C          3.08718       -0.02885        1.25754
C          1.76680       -0.42887        1.40735
H         -1.40871        3.80594       -0.60003
H         -0.86993        3.99423        1.16505
H         -0.03999        1.69202        1.17334
H         -0.93215        1.75975       -1.79360
H          0.40064        0.78153       -1.16334
H         -4.33205       -1.14521       -1.36985
H         -5.44468        0.63961       -0.19787
H         -5.51904       -0.82017        0.78852
H         -5.01937        1.15518        2.21496
H         -3.60077        1.55385        1.23873
H         -3.61912        0.07320        2.21948
H          1.26768       -1.82347       -1.65430
H          3.63881       -1.10419       -1.91373
H          6.62530        0.98316        0.68926
H          3.59892        0.46318        2.07777
H          1.24206       -0.26794        2.34426
