29
mol_0495_0001.log	Energy: -397363.6096164
C         -5.61760       -0.85212       -0.29744
C         -4.20569       -0.35368       -0.11193
C         -3.81021        0.90345       -0.56688
C         -2.50013        1.35177       -0.39143
C         -1.55180        0.55733        0.24905
C         -0.13684        1.04367        0.45934
N          0.83813        0.05401        0.01364
C          2.21234        0.51393        0.14381
C          3.17219       -0.58663       -0.28858
C          4.61771       -0.21332       -0.09062
O          5.02726        0.77835        0.46743
O          5.44917       -1.14088       -0.60944
C         -1.94369       -0.70666        0.70472
C         -3.24738       -1.15183        0.52599
H         -6.08986       -1.06807        0.66786
H         -5.63596       -1.77748       -0.88461
H         -6.23717       -0.11380       -0.81575
H         -4.53103        1.54405       -1.07019
H         -2.21787        2.33584       -0.76019
H         -0.00756        2.01981       -0.04296
H          0.04133        1.21837        1.52916
H          0.63988       -0.18906       -0.95477
H          2.41501        1.43418       -0.43183
H          2.39322        0.76011        1.19588
H          3.02979       -0.85136       -1.34377
H          2.97393       -1.50194        0.28222
H          6.35602       -0.84388       -0.42985
H         -1.21064       -1.34197        1.19454
H         -3.53083       -2.13799        0.88877
