30
mol_0136_0001.log	Energy: -418820.3241979
C          1.26559        2.65219        0.06468
C          2.09939        1.41430       -0.01735
N          3.35631        1.48240       -0.38070
O          3.82572        0.17883       -0.35421
C          2.83910       -0.64753        0.02581
C          3.15764       -2.09660        0.11656
C          1.70539        0.07005        0.26242
C          0.35485       -0.42382        0.68073
N         -0.18181       -1.37376       -0.29271
C         -1.55194       -1.80885       -0.00354
C         -2.60286       -0.72856       -0.00563
C         -3.01028        0.08706        1.09293
C         -3.95299        0.97543        0.63151
N         -4.13221        0.73268       -0.70473
C         -3.32219       -0.29931       -1.10079
H          1.84362        3.51568       -0.27300
H          0.36979        2.56029       -0.55899
H          0.93526        2.83223        1.09329
H          2.23502       -2.65896        0.27602
H          3.85258       -2.29276        0.94052
H          3.62486       -2.44730       -0.80907
H          0.41726       -0.94499        1.64620
H         -0.30542        0.44479        0.83763
H         -0.15431       -0.94517       -1.21516
H         -1.53677       -2.30728        0.97388
H         -1.80675       -2.57661       -0.74246
H         -2.65049        0.01633        2.11149
H         -4.50876        1.75050        1.13900
H         -4.78157        1.22086       -1.30000
H         -3.32632       -0.65353       -2.12264
