52
mol_0099_0001.log	Energy: -1076106.1131524
C         -6.74840        0.35046        0.46335
O         -5.75121        0.56699       -0.51151
C         -4.55003       -0.04930       -0.34962
C         -4.22666       -0.88443        0.72044
C         -2.95946       -1.46113        0.78792
C         -1.99975       -1.21584       -0.19167
C         -0.65088       -1.81791       -0.08936
C          0.48375       -1.05459       -0.14129
N          0.43846        0.34580       -0.26435
C         -0.03193        1.15626        0.75265
O         -0.30929        0.72574        1.85693
C         -0.16644        2.58792        0.40762
C         -0.27094        3.60300        1.32159
C         -0.39089        4.88132        0.71276
C         -0.38123        4.81233       -0.65343
S         -0.23783        3.19518       -1.21572
N          1.73460       -1.61240       -0.10173
C          2.93003       -0.81886       -0.05352
C          3.15687        0.02827        1.02917
C          4.31606        0.79302        1.06274
C          5.26834        0.71386        0.03936
C          6.53031        1.53677        0.10659
C          5.02406       -0.15537       -1.02588
C          3.85976       -0.91856       -1.08052
N          1.93685       -2.94410       -0.09862
C          0.90487       -3.72885       -0.02136
C          1.14816       -5.20404       -0.00977
C         -0.49191       -3.25495        0.07218
O         -1.41783       -4.05121        0.22880
C         -2.34788       -0.38824       -1.26777
C         -3.60237        0.19262       -1.34981
H         -6.42462        0.70342        1.45092
H         -7.61418        0.92895        0.13878
H         -7.02246       -0.71045        0.52527
H         -4.94215       -1.09672        1.50668
H         -2.71710       -2.10960        1.62271
H          0.96915        0.76802       -1.01506
H         -0.26238        3.41830        2.38926
H         -0.48469        5.81072        1.26196
H         -0.47050        5.62569       -1.36154
H          2.42837        0.08476        1.83330
H          4.48922        1.45724        1.90608
H          6.30403        2.59344        0.28564
H          7.10414        1.46644       -0.82212
H          7.17484        1.19607        0.92511
H          5.75133       -0.23854       -1.82951
H          3.67618       -1.59792       -1.90727
H          2.21624       -5.41194       -0.10066
H          0.76153       -5.64010        0.91720
H          0.60249       -5.68339       -0.82933
H         -1.62495       -0.19994       -2.05720
H         -3.87253        0.83284       -2.18370
