41
mol_0042_0001.log	Energy: -662566.3613318
O          1.81700       -1.94669        0.01152
C          1.41363       -0.79277       -0.05625
N          0.12301       -0.39613       -0.08007
C         -1.03301       -1.19012       -0.04128
C         -1.03439       -2.57854        0.05199
C         -2.23839       -3.28705        0.08777
C         -3.42043       -2.58049        0.02905
F         -4.59606       -3.24738        0.06283
C         -3.46562       -1.19410       -0.06488
C         -2.26304       -0.49770       -0.10066
O         -2.15699        0.85003       -0.18844
C         -3.33950        1.63726       -0.27362
C         -2.93005        3.07510       -0.38400
C         -2.54783        3.83208        0.85814
C         -3.84734        4.13933        0.16275
C          2.34628        0.43703       -0.14538
O          1.84949        1.55239       -0.32014
N          3.67010        0.23985       -0.04758
C          4.56055        1.39690       -0.20348
C          5.95142        0.77013       -0.29421
C          5.81945       -0.48871        0.56757
C          4.41432       -1.00006        0.23912
H         -0.00967        0.60909       -0.16475
H         -0.08984       -3.10410        0.09529
H         -2.25014       -4.36857        0.15974
H         -4.42672       -0.69700       -0.10737
H         -3.95024        1.47688        0.62676
H         -3.92090        1.32395       -1.15141
H         -2.38312        3.31661       -1.29196
H         -1.73757        4.55015        0.78355
H         -2.58939        3.29857        1.80401
H         -4.76952        3.82262        0.64353
H         -3.93137        5.06827       -0.39238
H          4.27274        1.97192       -1.08699
H          4.46096        2.05685        0.66750
H          6.17404        0.49603       -1.33214
H          6.73416        1.45035        0.05143
H          5.88387       -0.22556        1.63017
H          6.58594       -1.23980        0.35874
H          4.41358       -1.64938       -0.64236
H          3.95368       -1.55201        1.05748
