45
mol_0252_0001.log	Energy: -861694.9146290
C          2.79236       -3.35248        0.03673
C          1.46948       -2.70709       -0.18258
N          0.34949       -3.34024       -0.13338
C         -0.69458       -2.41039       -0.39353
C         -2.09027       -2.92803       -0.41533
C         -0.22646       -1.16429       -0.61784
C         -0.90778        0.10645       -0.95345
O         -0.40649        0.83775       -1.82038
N         -2.05701        0.43880       -0.30550
C         -2.73013        1.67330       -0.70726
C         -4.24222        1.53337       -0.54084
C         -4.61246        1.11556        0.88358
C         -3.85595       -0.15561        1.27532
C         -2.35456        0.02209        1.06936
C          1.26866       -1.25603       -0.58349
S          2.03912       -0.00647        0.50263
O          1.05003        0.35102        1.51917
O          3.35816       -0.44266        0.94140
N          2.27430        1.18807       -0.64239
C          2.96315        2.37514       -0.18667
C          2.44207        3.70318       -0.65173
C          2.33412        3.32537        0.80327
H          3.28556       -2.92096        0.91379
H          3.45740       -3.17185       -0.81483
H          2.65456       -4.42647        0.17528
H         -2.13976       -3.81950       -1.04856
H         -2.39954       -3.23071        0.59275
H         -2.79008       -2.17883       -0.79152
H         -2.35371        2.50400       -0.08903
H         -2.45933        1.88560       -1.74140
H         -4.71627        2.48657       -0.80100
H         -4.60902        0.78303       -1.25370
H         -4.34811        1.92384        1.58038
H         -5.69370        0.96115        0.96981
H         -4.04006       -0.40898        2.32554
H         -4.21189       -0.99900        0.66974
H         -1.97616        0.80307        1.74615
H         -1.80411       -0.88626        1.30370
H          1.72288       -1.08685       -1.56795
H          1.39954        1.35952       -1.14864
H          4.03885        2.24009       -0.14337
H          3.17005        4.45081       -0.95037
H          1.52855        3.70543       -1.24101
H          2.99096        3.80933        1.51944
H          1.35379        3.06214        1.18680
