62
mol_0009_0001.log	Energy: -1015531.2965884
C          9.21937       -2.58195       -0.85609
C          8.17308       -2.43761        0.22970
O          8.30065       -3.01687        1.29446
C          6.98151       -1.57206       -0.02937
C          6.77381       -0.91463       -1.24425
C          5.65270       -0.11937       -1.46140
C          4.71255        0.02654       -0.43727
N          3.54064        0.79466       -0.56056
C          3.15366        1.60799       -1.58912
O          3.79198        1.78684       -2.61344
C          1.80219        2.33048       -1.39196
C          1.86781        3.43270       -0.33407
C          1.85204        2.84160        1.07270
O          2.49401        3.35505        1.97114
N          1.06533        1.72807        1.28597
C          0.46961        1.12971        0.27528
N         -0.40384        0.12076        0.53624
C         -0.76400       -0.18690        1.92072
C         -2.13400        0.39141        2.25084
N         -3.13762       -0.11291        1.32055
C         -4.47446        0.35778        1.66335
C         -5.55814       -0.33083        0.86141
C         -5.60189       -1.72508        0.80474
C         -6.59419       -2.40683        0.08622
C         -7.53596       -1.63383       -0.55790
C         -7.50014       -0.24704       -0.50763
C         -6.52353        0.43491        0.18525
O         -8.51562        0.26101       -1.27278
C         -9.35351       -0.85635       -1.55222
O         -8.57571       -2.03226       -1.35551
C         -2.78053        0.21795       -0.05037
C         -1.41306       -0.36362       -0.40124
N          0.71042        1.43220       -1.04167
C          4.91319       -0.62358        0.78988
C          6.03156       -1.41236        0.98746
H          8.78261       -3.01438       -1.76351
H          9.64178       -1.60693       -1.12387
H         10.01524       -3.23403       -0.49327
H          7.49238       -1.01307       -2.05239
H          5.50925        0.38761       -2.40548
H          2.94651        0.78669        0.26127
H          1.58336        2.76524       -2.36933
H          2.76098        4.04767       -0.45797
H          0.98916        4.07984       -0.44555
H         -0.79009       -1.27820        2.01985
H         -0.00033        0.22318        2.57870
H         -2.07230        1.49686        2.22682
H         -2.41439        0.09365        3.26687
H         -4.55896        1.45421        1.53209
H         -4.62531        0.15700        2.73108
H         -4.83579       -2.29151        1.32605
H         -6.62210       -3.48997        0.03748
H         -6.50228        1.52039        0.20244
H        -10.19983       -0.85898       -0.85121
H         -9.68581       -0.81000       -2.58910
H         -2.75544        1.31573       -0.20783
H         -3.53302       -0.20061       -0.72574
H         -1.16875       -0.10640       -1.43191
H         -1.44767       -1.45643       -0.32856
H          0.50455        0.72142       -1.72738
H          4.18974       -0.49694        1.59227
H          6.19146       -1.91576        1.93558
