51
mol_0165_0001.log	Energy: -1129737.1716728
C         -1.80394       -3.51507       -1.45099
C         -1.83844       -2.18740       -0.69355
C         -0.77237       -1.17224       -1.19427
C         -0.90061        0.20015       -0.51406
C          0.16299        1.18094       -1.00072
N          1.49173        0.60687       -0.82736
C          2.49160        1.37958       -0.30909
O          2.34771        2.56668       -0.04507
C          3.80551        0.70771        0.00030
C          4.97912        1.31644       -0.44191
C          6.19022        0.73844       -0.09687
F          7.32845        1.30819       -0.53140
C          6.28715       -0.40316        0.68521
C          5.09633       -0.96324        1.12054
F          5.15153       -2.06510        1.89282
C          3.85575       -0.44002        0.79415
C          1.67511       -0.65717       -1.52714
C          0.66227       -1.69713       -1.04827
N         -1.79921       -2.38597        0.74922
C         -2.82341       -1.77091        1.40702
O         -2.97668       -1.63311        2.60313
N         -3.71487       -1.31990        0.41563
C         -4.82212       -0.41465        0.70296
C         -4.34972        1.01407        0.63624
C         -3.57365        1.64053        1.66431
C         -3.15852        2.89214        1.31727
S         -3.70724        3.33288       -0.25803
C         -4.49844        1.81727       -0.45986
C         -3.21423       -1.52490       -0.84605
O         -3.74363       -1.20453       -1.88975
H         -0.87492       -4.05648       -1.24973
H         -1.88490       -3.33638       -2.52705
H         -2.63813       -4.14971       -1.13850
H         -0.97941       -1.03842       -2.26607
H         -0.80582        0.09212        0.57395
H         -1.88340        0.64149       -0.71199
H          0.00618        1.41758       -2.06397
H          0.11755        2.11579       -0.44257
H          4.95024        2.22845       -1.02730
H          7.24681       -0.83091        0.94959
H          2.95366       -0.91187        1.16890
H          2.69433       -1.01773       -1.39120
H          1.53168       -0.48122       -2.60486
H          0.80746       -2.61335       -1.63047
H          0.87684       -1.93464        0.00347
H         -0.97977       -2.67106        1.26273
H         -5.60615       -0.60815       -0.03175
H         -5.19405       -0.66975        1.69754
H         -3.33557        1.16130        2.60796
H         -2.56819        3.58447        1.90276
H         -5.00469        1.57689       -1.38582
