48
mol_0431_0001.log	Energy: -775482.6015208
C         -3.01528       -3.83143       -0.02617
N         -2.77046       -2.39159       -0.04979
C         -1.44737       -1.94522       -0.26837
O         -0.51631       -2.72585       -0.45394
C         -1.37058       -0.52636       -0.25485
C         -2.45466        0.28882       -0.07017
N         -2.12250        1.60088       -0.09567
C         -0.80154        1.59561       -0.30114
N         -0.04982        2.72969       -0.43191
C         -0.77444        4.00634       -0.50469
C          0.32930        5.04021       -0.30754
C          1.22940        4.36133        0.72916
C          1.23274        2.89349        0.28656
N         -0.29197        0.33833       -0.42725
C          1.03809       -0.07359       -0.79183
C          1.90973       -0.40779        0.42252
O          1.49636       -0.21677        1.54791
C          3.27651       -0.95095        0.16716
C          4.07983       -1.25860        1.27118
C          5.36330       -1.75701        1.08736
C          5.85786       -1.95118       -0.20275
C          5.06506       -1.64760       -1.30727
C          3.77786       -1.15034       -1.12417
N         -3.71290       -0.21720        0.13057
C         -4.83613        0.68240        0.34994
C         -3.90020       -1.59176        0.15562
O         -4.99787       -2.09515        0.34293
H         -3.42971       -4.12290        0.94124
H         -3.72969       -4.10141       -0.80692
H         -2.06110       -4.32720       -0.19564
H         -1.52551        4.07042        0.29368
H         -1.29367        4.08951       -1.46326
H          0.87573        5.20116       -1.24446
H         -0.06332        6.00327        0.02913
H          0.78198        4.45043        1.72551
H          2.23853        4.77984        0.77280
H          2.07678        2.69672       -0.38651
H          1.29466        2.20106        1.13016
H          1.50526        0.71585       -1.38972
H          0.95201       -0.96766       -1.41581
H          3.67674       -1.10354        2.26693
H          5.97948       -1.99731        1.94867
H          6.86093       -2.34247       -0.34687
H          5.44637       -1.80241       -2.31212
H          3.17313       -0.92848       -1.99824
H         -5.73807        0.07744        0.42448
H         -4.91519        1.38149       -0.48607
H         -4.68616        1.24924        1.27289
