40
mol_0217_0001.log	Energy: -401772.3136576
C         -3.79997       -1.04040        1.83629
C         -3.12073       -0.72511        0.50404
C         -3.78829        0.46096       -0.20312
C         -3.09456        0.80592       -1.52367
C         -1.59829        1.06218       -1.32029
C         -0.92540       -0.13700       -0.64443
N          0.52898        0.02884       -0.57281
C          1.00879        1.01802        0.38035
C          2.50569        1.24572        0.18232
C          3.08521        2.21572        1.19476
O          3.21010        0.02058        0.31922
C          2.75546       -0.97674       -0.58308
C          3.58127       -2.22448       -0.33277
C          1.25882       -1.21629       -0.39582
C         -1.62191       -0.45298        0.69106
H         -4.86473       -1.26155        1.69705
H         -3.33624       -1.90558        2.32443
H         -3.72212       -0.18732        2.52262
H         -3.22361       -1.60606       -0.14965
H         -3.75291        1.33542        0.46518
H         -4.84961        0.24216       -0.37791
H         -3.22722       -0.02591       -2.23066
H         -3.56679        1.68344       -1.98098
H         -1.47703        1.96118       -0.69977
H         -1.09942        1.25965       -2.27564
H         -1.08180       -1.00042       -1.30863
H          0.84438        0.70330        1.42919
H          0.48227        1.96503        0.22535
H          2.66009        1.62854       -0.84043
H          2.60348        3.19586        1.10780
H          2.93731        1.84070        2.21322
H          4.15906        2.33973        1.02752
H          2.91533       -0.61748       -1.61355
H          3.43183       -2.58387        0.69108
H          3.29661       -3.02052       -1.02963
H          4.64472       -2.00711       -0.46826
H          1.10164       -1.66144        0.60664
H          0.91442       -1.93957       -1.14440
H         -1.14590       -1.31658        1.17374
H         -1.50393        0.39878        1.37770
