35
mol_0465_0001.log	Energy: -444308.1754283
C         -1.58604        3.23984        0.42672
C         -2.23371        2.30194       -0.59861
C         -1.86838        0.86382       -0.34870
C         -2.78707       -0.07372        0.01731
C         -2.38525       -1.44039        0.26147
O         -3.09949       -2.38185        0.57734
N         -1.00490       -1.62065        0.09125
C         -0.14284       -0.63632       -0.26381
C          1.33366       -1.03579       -0.31134
N          1.36689       -2.46006       -0.67735
C          1.91496       -0.91520        1.11779
C          2.10590        0.53192        1.57338
C          3.02218        1.28705        0.60772
C          2.45896        1.26574       -0.81488
C          2.15433       -0.16203       -1.28708
N         -0.52591        0.58321       -0.49564
H         -1.84033        4.28233        0.20960
H         -0.49636        3.13917        0.40521
H         -1.93131        3.00752        1.44019
H         -3.32276        2.41413       -0.58028
H         -1.89024        2.57193       -1.60486
H         -3.83853        0.16494        0.12965
H         -0.62072       -2.55751        0.19510
H          1.18875       -2.57728       -1.67324
H          2.28897       -2.84569       -0.49491
H          2.89686       -1.41224        1.11162
H          1.28149       -1.47381        1.81650
H          2.52804        0.53512        2.58490
H          1.13368        1.03742        1.62992
H          3.15443        2.32265        0.94200
H          4.01893        0.82056        0.62077
H          1.54155        1.85836       -0.85355
H          3.17529        1.71991       -1.51044
H          1.64942       -0.13729       -2.26099
H          3.10592       -0.69413       -1.43360
