37
mol_0006_0001.log	Energy: -905703.1251687
C         -0.54691        5.69304        0.45602
C         -0.63515        4.68616       -0.41167
C         -1.32860        3.38960       -0.11671
S         -0.06537        2.06579       -0.05487
C         -1.11742        0.64223       -0.03134
N         -2.39651        0.77057       -0.03705
C         -3.17161       -0.37910       -0.01298
C         -4.57048       -0.25022       -0.02190
C         -5.36829       -1.37973        0.00362
C         -4.79798       -2.66290        0.03898
C         -3.42267       -2.80354        0.04835
C         -2.60603       -1.66417        0.02237
C         -1.15030       -1.80698        0.03085
O         -0.53823       -2.85898        0.05934
N         -0.45417       -0.57833        0.00089
C          0.98106       -0.64673        0.00273
C          1.66273       -0.71565       -1.20847
C          3.04982       -0.77695       -1.21304
C          3.71652       -0.77204        0.00598
N          5.18788       -0.83145        0.00740
O          5.75424       -0.87989       -1.07391
O          5.75434       -0.82728        1.08968
C          3.04984       -0.71516        1.22357
C          1.66263       -0.65423        1.21587
H         -0.97202        5.62414        1.45514
H         -0.05055        6.62296        0.19481
H         -0.19351        4.78299       -1.40273
H         -2.04373        3.12699       -0.90015
H         -1.85948        3.41886        0.83748
H         -4.99780        0.74714       -0.04858
H         -6.44932       -1.27255       -0.00351
H         -5.43621       -3.54074        0.05888
H         -2.95079       -3.78069        0.07534
H          1.10581       -0.71997       -2.13949
H          3.61084       -0.82888       -2.13807
H          3.61075       -0.71988        2.15011
H          1.10576       -0.61122        2.14591
