43
mol_0381_0001.log	Energy: -723452.4265269
C         -6.87779       -2.89693        0.01575
C         -5.70124       -1.95363       -0.02058
C         -5.85620       -0.58497        0.18687
C         -4.76640        0.28148        0.18069
C         -3.48216       -0.22015       -0.03898
N         -2.33813        0.60616       -0.06321
C         -2.24417        1.95032        0.16239
O         -3.16993        2.70194        0.43245
C         -0.86391        2.47725        0.05860
C         -0.37080        3.72706        0.27142
C          1.03537        3.63991        0.04107
C          1.29251        2.34629       -0.29759
C          2.53477        1.62088       -0.66118
O          2.85317        0.71710        0.38303
C          3.93229       -0.09983        0.21642
C          4.79383       -0.06187       -0.88042
C          5.87317       -0.94730       -0.94659
C          6.07004       -1.84778        0.08161
F          7.11434       -2.70476        0.01749
C          5.22515       -1.89917        1.18316
C          4.15368       -1.02078        1.24649
O          0.14142        1.62853       -0.29462
C         -3.29121       -1.59917       -0.25450
C         -1.91644       -2.17280       -0.49861
C         -4.40710       -2.43191       -0.24142
H         -6.78664       -3.67913       -0.74551
H         -6.95379       -3.39402        0.99063
H         -7.81867       -2.36541       -0.15805
H         -6.84852       -0.17422        0.35779
H         -4.90542        1.34149        0.34431
H         -1.46121        0.14427       -0.25888
H         -0.95277        4.58936        0.56139
H          1.76611        4.43247        0.12260
H          3.34130        2.35212       -0.80175
H          2.39148        1.06926       -1.60092
H          4.65046        0.64452       -1.69013
H          6.55349       -0.93296       -1.79141
H          5.40999       -2.61886        1.97353
H          3.47306       -1.03216        2.09151
H         -1.23656       -1.98625        0.34316
H         -1.97094       -3.25622       -0.63356
H         -1.45173       -1.75909       -1.40365
H         -4.25946       -3.49751       -0.41045
