46
mol_0373_0001.log	Energy: -839100.7740936
C         -1.60959        4.81754       -0.73647
C         -1.74963        3.37392       -0.32234
C         -2.90823        2.89533        0.28738
C         -3.02757        1.55930        0.67026
C         -1.99142        0.64919        0.45641
C         -2.06941       -0.81169        0.91946
C         -3.48864       -1.38695        1.00407
C         -4.10927       -1.56206       -0.38245
C         -3.20510       -2.44482       -1.24259
C         -1.76980       -1.91330       -1.28836
N         -1.25895       -1.67837        0.05735
C          0.01866       -1.97215        0.46808
O          0.38451       -1.84424        1.63436
N          0.88918       -2.44417       -0.50497
C          2.30039       -2.54687       -0.14997
C          3.03263       -1.23548       -0.20590
C          3.89801       -0.81364       -1.17137
N          4.40910        0.45479       -1.03531
C          3.94345        1.02381        0.03954
C          4.30779        2.40941        0.47423
S          2.84110        0.03655        0.96043
C         -0.82787        1.13359       -0.15220
C         -0.70896        2.46425       -0.53374
H         -2.53329        5.37617       -0.55670
H         -0.80592        5.31128       -0.17778
H         -1.36693        4.90239       -1.80177
H         -3.73925        3.57373        0.46798
H         -3.95283        1.24093        1.14068
H         -1.60843       -0.87211        1.90837
H         -3.41488       -2.36379        1.49775
H         -4.11789       -0.76223        1.64498
H         -5.10585       -2.01021       -0.29989
H         -4.23522       -0.58241       -0.86198
H         -3.58707       -2.51439       -2.26770
H         -3.18742       -3.46135       -0.82856
H         -1.73148       -0.98222       -1.87564
H         -1.14542       -2.65859       -1.78411
H          0.73460       -2.10346       -1.44415
H          2.35738       -2.99181        0.84448
H          2.77438       -3.23629       -0.85574
H          4.20352       -1.41359       -2.02262
H          3.41892        3.03843        0.59083
H          4.95918        2.85129       -0.28299
H          4.83880        2.39811        1.43211
H          0.01061        0.46629       -0.32857
H          0.21290        2.80103       -1.00434
