42
mol_0012_0001.log	Energy: -543186.2183184
C          2.24817        2.51920       -0.07126
C          3.54450        1.75966        0.08005
O          4.59265        2.36815        0.22401
C          3.58077        0.25407        0.02139
C          4.83338       -0.33511       -0.17888
C          4.98872       -1.71089       -0.28944
C          3.86645       -2.52802       -0.18852
C          2.60694       -1.97691        0.02678
C          2.45702       -0.59016        0.13580
O          1.26267       -0.00349        0.38296
C          0.07217       -0.75752        0.27265
C         -1.08978        0.21133        0.33983
O         -1.09481        0.99520       -0.83013
C         -2.42389       -0.53282        0.47146
N         -3.50004        0.44011        0.32084
C         -4.83860       -0.05698       -0.05825
C         -5.79378        1.13305        0.07802
C         -5.31198       -1.20599        0.84747
C         -4.81215       -0.51344       -1.52159
H          1.62032        2.11722       -0.87061
H          1.66057        2.43690        0.84890
H          2.49053        3.56819       -0.25394
H          5.68886        0.32868       -0.25449
H          5.97171       -2.14026       -0.45512
H          3.96448       -3.60695       -0.27227
H          1.74865       -2.63259        0.11949
H          0.00615       -1.48422        1.09578
H          0.04628       -1.28987       -0.68737
H         -0.94693        0.85506        1.22498
H         -2.00910        1.32365       -0.90335
H         -2.49522       -1.26275       -0.34208
H         -2.45857       -1.08615        1.42335
H         -3.58158        0.97794        1.18116
H         -5.84976        1.47830        1.11849
H         -6.80569        0.85388       -0.23305
H         -5.45688        1.96892       -0.54414
H         -6.33066       -1.51344        0.58580
H         -5.31167       -0.89710        1.90021
H         -4.66553       -2.08558        0.75052
H         -4.45633        0.29589       -2.16738
H         -5.81863       -0.80033       -1.84509
H         -4.16251       -1.38190       -1.67344
