46
mol_0170_0001.log	Energy: -636432.9123588
C         -1.56949        3.55548       -1.03455
C         -0.39115        2.79153       -0.48364
C          0.54103        2.21614       -1.35738
C          1.61120        1.49124       -0.85768
C          1.74688        1.34809        0.51574
C          0.85149        1.90060        1.41325
C         -0.23252        2.63007        0.90758
C         -1.24451        3.21543        1.85996
O          2.83911        0.58855        0.86295
C          3.24016       -0.10161       -0.33825
C          2.56468       -1.48356       -0.40852
O          2.56721       -2.12227       -1.45313
N          1.98145       -1.89381        0.74018
C          1.06520       -3.01675        0.79771
C         -0.40913       -2.57583        0.79499
C         -0.76342       -1.73560        2.02428
C         -0.73826       -1.83399       -0.50996
N         -2.11778       -1.38201       -0.56634
C         -2.57195       -0.11437       -0.28817
C         -3.93849       -0.18480       -0.36516
N         -4.33712       -1.46094       -0.67914
C         -3.22125       -2.14748       -0.78644
C          2.76716        0.77754       -1.51235
H         -1.59362        4.58653       -0.66179
H         -1.53548        3.59528       -2.12685
H         -2.52204        3.08922       -0.75218
H          0.41441        2.33409       -2.43116
H          0.98213        1.76468        2.48327
H         -1.32894        4.30173        1.73834
H         -0.97330        3.01370        2.89995
H         -2.24329        2.79508        1.68736
H          4.32264       -0.23428       -0.29509
H          2.01208       -1.24268        1.51297
H          1.28216       -3.65144       -0.06554
H          1.27215       -3.59697        1.70345
H         -1.00701       -3.49761        0.82273
H         -1.84084       -1.55393        2.07842
H         -0.46098       -2.24563        2.94627
H         -0.27170       -0.75474        1.99160
H         -0.53659       -2.47235       -1.37597
H         -0.10913       -0.94374       -0.60901
H         -1.88399        0.69049       -0.07250
H         -4.65809        0.60928       -0.22056
H         -3.14911       -3.19909       -1.03310
H          2.49788        0.16297       -2.37379
H          3.54847        1.48374       -1.81675
