51
mol_0193_0001.log	Energy: -945019.1367539
C         -4.92266       -1.29456       -1.69635
C         -4.60633       -0.96354       -0.24842
O         -5.35118       -1.33191        0.65412
N         -3.47627       -0.23442        0.00000
C         -3.06317        0.00545        1.37515
C         -2.59240        1.44423        1.54397
N         -1.52939        1.73923        0.59356
C         -0.90032        3.03025        0.79761
C          0.52845        3.08494        0.28971
C          1.19591        1.91658       -0.06322
C          2.52711        1.98781       -0.49008
N          3.24233        0.86180       -0.85008
C          2.59061       -0.39747       -1.14826
C          2.34779       -1.22121        0.11964
C          3.57328       -1.84982        0.77748
C          3.04409       -2.93263        1.73442
C          2.03163       -3.78215        0.95667
S          1.26610       -2.64513       -0.24424
O          1.54832       -3.11838       -1.60328
O         -0.11240       -2.33040        0.14051
C          3.12163        3.25979       -0.52228
C          2.36154        4.35748       -0.15074
N          1.08522        4.29958        0.24555
C         -2.00618        1.55575       -0.76989
C         -2.46441        0.11698       -0.98533
H         -4.13416       -1.90497       -2.14945
H         -5.04663       -0.39113       -2.30315
H         -5.85646       -1.85709       -1.70599
H         -3.91252       -0.20678        2.02493
H         -2.24102       -0.67889        1.62734
H         -3.45253        2.13052        1.41829
H         -2.20344        1.57353        2.55967
H         -1.46623        3.86038        0.33854
H         -0.87122        3.23733        1.87411
H          0.65026        0.98401        0.01505
H          4.10996        1.03619       -1.33355
H          1.64034       -0.22521       -1.67193
H          3.22551       -0.96898       -1.82986
H          1.79453       -0.63332        0.85900
H          4.15638       -1.09056        1.30497
H          4.21964       -2.30053        0.01263
H          3.85146       -3.55818        2.12429
H          2.55273       -2.45673        2.59039
H          1.23670       -4.21069        1.56916
H          2.51184       -4.56562        0.36558
H          4.15313        3.38929       -0.83942
H          2.80396        5.35119       -0.17807
H         -1.19325        1.78137       -1.46854
H         -2.84275        2.24750       -0.99306
H         -1.60689       -0.56299       -0.88445
H         -2.86769        0.01746       -1.99335
