35
mol_0496_0001.log	Energy: -540742.6897982
C         -5.10895       -2.48377        0.38305
O         -3.69804       -2.53486        0.33234
C         -3.01915       -1.37570        0.14388
C         -1.62428       -1.49295        0.10234
C         -0.83020       -0.36220       -0.07727
C          0.62201       -0.57245       -0.09007
C          1.64502        0.29865        0.06108
C          1.43296        1.69134        0.34685
N          1.31437        2.82061        0.58777
C          3.07048       -0.12705       -0.01172
C          3.46800       -1.14339       -0.88884
C          4.79380       -1.56410       -0.92956
C          5.74493       -0.96656       -0.10516
C          5.36183        0.06036        0.75520
C          4.03620        0.48056        0.79948
C         -1.43237        0.89847       -0.24501
C         -2.81707        0.99960       -0.20074
O         -3.49532        2.16414       -0.34158
C         -2.75000        3.35796       -0.50101
C         -3.62142       -0.13321       -0.00426
H         -5.43850       -3.51128        0.53940
H         -5.52724       -2.10576       -0.55826
H         -5.45437       -1.85922        1.21638
H         -1.18335       -2.47753        0.22384
H          0.91538       -1.61353       -0.21011
H          2.74326       -1.58977       -1.56412
H          5.08629       -2.35038       -1.61953
H          6.78070       -1.29120       -0.14165
H          6.09709        0.53809        1.39609
H          3.74813        1.28310        1.47328
H         -0.82476        1.77478       -0.41481
H         -2.07824        3.52501        0.34921
H         -2.16724        3.34012       -1.42998
H         -3.48605        4.16069       -0.55026
H         -4.69558        0.00497        0.02060
