43
mol_0229_0001.log	Energy: -597993.8320349
C          4.60741        2.44150       -0.28507
C          3.19950        1.84699       -0.23218
C          3.12753        0.47694        0.45472
C          3.88858       -0.62504       -0.29672
C          3.80313       -1.97208        0.42754
C          2.34866       -2.39016        0.65321
C          1.57437       -1.30249        1.40142
C          1.67705        0.05809        0.71340
O          1.01049        0.02279       -0.57201
C         -0.34134        0.07380       -0.55015
C         -1.11530       -1.02012       -0.94341
F         -0.48114       -2.15536       -1.28600
C         -2.49821       -0.98160       -1.00465
C         -3.17766        0.18938       -0.65972
C         -4.68745        0.22817       -0.66382
C         -5.29035       -0.32308        0.63490
N         -4.90402        0.50262        1.77524
C         -2.43585        1.30478       -0.26325
C         -1.05342        1.23141       -0.22541
F         -0.35320        2.32525        0.13363
H          5.05095        2.50007        0.71694
H          5.27995        1.84844       -0.91399
H          4.58384        3.45554       -0.69845
H          2.79280        1.76045       -1.24641
H          2.53800        2.54055        0.30326
H          3.58191        0.57650        1.45443
H          3.46928       -0.72178       -1.30729
H          4.93913       -0.33586       -0.41272
H          4.31661       -1.89419        1.39776
H          4.33213       -2.74130       -0.14759
H          1.86767       -2.57185       -0.31440
H          2.30187       -3.33001        1.21591
H          1.97565       -1.18999        2.41870
H          0.51837       -1.58042        1.51060
H          1.18864        0.82499        1.32800
H         -3.03334       -1.87065       -1.32506
H         -5.06845       -0.36180       -1.50577
H         -5.03315        1.25884       -0.79560
H         -6.38214       -0.28971        0.55137
H         -5.00213       -1.38310        0.74023
H         -5.39170        0.20740        2.61541
H         -3.90809        0.41452        1.96070
H         -2.92449        2.23472        0.00979
