61
mol_0309_0001.log	Energy: -866467.4296500
C         -5.96532       -2.36755       -0.58114
C         -5.56662       -1.16878        0.30255
C         -5.92175       -1.52567        1.75931
C         -6.34076        0.05492       -0.20980
C         -7.41451        0.61912        0.48073
C         -8.11665        1.70665       -0.04362
C         -7.75790        2.24829       -1.27250
C         -6.68640        1.69456       -1.97408
C         -5.98922        0.61477       -1.44573
C         -4.05994       -0.87904        0.25132
C         -3.12722       -1.76579       -0.29566
C         -1.76522       -1.48795       -0.28304
C         -1.29757       -0.30388        0.28532
O          0.05200       -0.11700        0.25647
C          0.59037        1.07958        0.78454
C          2.09519        1.03307        0.55794
O          2.41605        1.02937       -0.81609
C          2.72712       -0.16257        1.28749
N          4.12883       -0.28883        0.95897
C          5.12324        0.50421        1.47176
O          5.00708        1.31799        2.36602
C          6.37904        0.19007        0.67130
C          6.87664        1.40579       -0.12163
C          7.86865        0.96097       -1.20126
C          7.23298       -0.07921       -2.13112
C          6.73996       -1.29239       -1.33847
N          5.92681       -0.86828       -0.21521
C          4.58343       -1.06648       -0.12620
O          3.87661       -1.77930       -0.81442
C         -2.20714        0.59885        0.83820
C         -3.56749        0.30082        0.81261
H         -5.52435       -3.30065       -0.21215
H         -5.65977       -2.22610       -1.62305
H         -7.05387       -2.48374       -0.56542
H         -6.96949       -1.83359        1.85412
H         -5.29636       -2.36152        2.08927
H         -5.74184       -0.68669        2.43974
H         -7.71873        0.22058        1.44322
H         -8.94624        2.12863        0.51738
H         -8.30271        3.09491       -1.68062
H         -6.38965        2.10966       -2.93348
H         -5.14352        0.20583       -1.99376
H         -3.45320       -2.69611       -0.74958
H         -1.04945       -2.18144       -0.71396
H          0.36607        1.16268        1.85832
H          0.17355        1.94940        0.26136
H          2.52437        1.95866        0.95546
H          2.12267        0.18881       -1.19772
H          2.63451       -0.03780        2.37021
H          2.23679       -1.09316        0.99194
H          7.16688       -0.17613        1.34271
H          6.01474        1.89425       -0.59480
H          7.32483        2.12483        0.57064
H          8.76474        0.53417       -0.72740
H          8.19954        1.83134       -1.77785
H          7.95231       -0.41079       -2.88833
H          6.38354        0.37228       -2.65947
H          7.59498       -1.86592       -0.95511
H          6.13050       -1.96106       -1.95022
H         -1.87819        1.53189        1.28240
H         -4.26367        1.02384        1.23130
