51
mol_0326_0001.log	Energy: -636154.9164647
C          5.99002       -1.62640       -0.11229
C          5.09268       -0.41005       -0.36573
N          3.70827       -0.51961        0.10022
C          3.59911       -0.64844        1.55741
C          4.35013        0.42764        2.33448
C          2.90081       -1.54046       -0.59253
C          3.10745       -1.51756       -2.10990
C          1.40842       -1.32770       -0.27260
N          1.08536        0.07247       -0.44062
C         -0.16482        0.57046       -0.28804
N         -1.18079       -0.29662       -0.15714
C         -2.41819        0.19860       -0.04935
C         -3.52058       -0.79677        0.09165
C         -3.26058       -2.16765        0.11300
C         -4.32672       -3.05114        0.24731
N         -5.60260       -2.66995        0.35851
C         -5.84057       -1.35499        0.33666
C         -4.84949       -0.38719        0.20734
N         -2.76363        1.48797       -0.05265
C         -1.73553        2.33790       -0.16360
C         -0.41691        1.95415       -0.27707
C          0.50232        3.13628       -0.41165
C         -0.41088        4.32036        0.00529
C         -1.86299        3.83830       -0.21489
H          6.09840       -1.83492        0.95777
H          6.99097       -1.44384       -0.51814
H          5.59544       -2.53002       -0.59041
H          5.07479       -0.17873       -1.43334
H          5.53146        0.47109        0.11120
H          2.54065       -0.56499        1.81901
H          3.92573       -1.64852        1.89888
H          4.05434        0.38663        3.38768
H          5.43649        0.29938        2.29568
H          4.10567        1.42452        1.95048
H          3.15664       -2.55280       -0.22773
H          2.93128       -0.51623       -2.51745
H          4.11005       -1.84227       -2.40122
H          2.39646       -2.20275       -2.58108
H          0.80056       -1.93083       -0.95321
H          1.15750       -1.66721        0.74094
H          1.87905        0.69759       -0.35644
H         -2.24251       -2.53038        0.02642
H         -4.14837       -4.12417        0.26676
H         -6.88354       -1.05978        0.42800
H         -5.09629        0.66849        0.19575
H          1.39600        3.06782        0.22110
H          0.85311        3.24070       -1.44829
H         -0.25807        4.53114        1.06942
H         -0.18151        5.23600       -0.54628
H         -2.24747        4.13436       -1.19981
H         -2.56517        4.21774        0.53297
