33
mol_0296_0001.log	Energy: -765851.1469089
C         -6.30733        0.54120       -0.75258
N         -5.30621       -0.28132       -0.08739
C         -3.92545        0.11716       -0.34679
C         -3.40389       -0.29976       -1.72810
C         -3.03274       -0.39726        0.81783
C         -3.01097       -1.91864        0.96802
C         -1.64546        0.13961        0.67622
N         -0.52937       -0.49588        0.48857
C          0.38619        0.52922        0.40807
C          1.82466        0.27690        0.19397
C          2.28214       -1.03755        0.08850
C          3.63937       -1.25742       -0.11221
C          4.47269       -0.15070       -0.19784
Cl         6.18404       -0.34246       -0.44866
C          3.92825        1.12914       -0.08136
N          2.63171        1.33961        0.11039
N         -0.12832        1.72357        0.53646
O         -1.47890        1.46641        0.71535
H         -6.20850        0.58781       -1.85023
H         -6.25011        1.56312       -0.36302
H         -7.30192        0.15176       -0.51663
H         -5.43874       -1.25413       -0.34961
H         -3.90768        1.21250       -0.29106
H         -2.38291        0.05714       -1.90354
H         -3.40248       -1.39030       -1.83988
H         -4.03776        0.11801       -2.51662
H         -3.45938        0.03837        1.72948
H         -4.02624       -2.28868        1.13707
H         -2.39982       -2.21100        1.82642
H         -2.59000       -2.40948        0.08576
H          1.58306       -1.86293        0.16361
H          4.03991       -2.26206       -0.19970
H          4.56569        2.00712       -0.14609
