49
mol_0191_0001.log	Energy: -835669.2496693
C          0.76460        0.60966        2.45587
C          1.54036       -0.14066        1.40104
C          2.92909       -0.20345        1.46948
C          3.65474       -0.88026        0.50014
O          5.03392       -0.98640        0.63336
C          5.81745       -0.03265        0.09576
N          5.24687        0.98536       -0.53961
C          6.08358        1.89105       -1.05115
C          7.46201        1.78652       -0.93104
C          7.92906        0.67183       -0.23798
N          7.11981       -0.24693        0.28170
C          3.01731       -1.51997       -0.54785
C          1.62934       -1.47633       -0.63461
C          0.89103       -0.78844        0.33154
N         -0.52023       -0.71973        0.29066
C         -1.37635       -1.07580       -0.71585
O         -1.04204       -1.60261       -1.76499
C         -2.81972       -0.76719       -0.39728
C         -3.69017       -1.83485       -0.13022
C         -3.19753       -3.25949       -0.15249
C         -5.02452       -1.55210        0.15103
C         -5.52759       -0.25128        0.15765
C         -6.98060        0.01222        0.45700
C         -4.61712        0.76782       -0.11602
N         -5.10815        2.15316       -0.09129
O         -5.99524        2.45711       -0.87426
O         -4.59966        2.91669        0.71736
C         -3.26517        0.55968       -0.40005
C         -2.33993        1.70798       -0.73071
H          0.09004       -0.04859        3.01989
H          0.16322        1.41900        2.02198
H          1.44345        1.06577        3.18058
H          3.45903        0.28547        2.28174
H          5.61941        2.72472       -1.57314
H          8.13419        2.52591       -1.34987
H          8.99381        0.50452       -0.09116
H          3.60039       -2.05042       -1.29343
H          1.11662       -1.96790       -1.44996
H         -0.96561       -0.30009        1.09361
H         -2.30734       -3.38645        0.47357
H         -2.91878       -3.55291       -1.16938
H         -3.96833       -3.94524        0.20938
H         -5.70281       -2.37261        0.37240
H         -7.44526       -0.88010        0.88428
H         -7.10882        0.83509        1.16766
H         -7.52193        0.28243       -0.45456
H         -1.47836        1.36479       -1.30717
H         -1.97619        2.19667        0.17903
H         -2.84995        2.47279       -1.32309
