46
mol_0035_0001.log	Energy: -662078.1969481
C          6.50141       -0.84035       -1.11238
C          5.19076       -0.99940       -1.29585
C          4.21152        0.12827       -1.47078
C          3.18484        0.32350       -0.32854
C          2.29930        1.53220       -0.69809
O          3.00520        2.75791       -0.77143
C          3.89902        0.54094        1.01846
C          2.93100        0.57791        2.20543
C          2.04337       -0.66697        2.21144
N          1.36637       -0.81930        0.92829
C          0.00966       -0.64308        0.85988
O         -0.66184       -0.40640        1.85480
C         -0.63635       -0.76803       -0.52683
C         -2.13927       -0.66797       -0.48319
C         -2.92578       -1.81146       -0.59857
C         -4.32882       -1.75978       -0.55017
C         -4.89402       -0.51830       -0.37786
C         -4.11688        0.62930       -0.26549
C         -2.74458        0.59172       -0.31885
O         -4.93761        1.72067       -0.14969
C         -6.22615        1.17756        0.11280
O         -6.21997       -0.17270       -0.33642
C          2.27501       -0.91855       -0.20502
H          6.95186        0.14967       -1.06946
H          7.17000       -1.69008       -1.00451
H          4.79245       -2.01378       -1.34100
H          4.75697        1.07123       -1.59168
H          3.65268       -0.03149       -2.40551
H          1.88196        1.37500       -1.69971
H          1.45556        1.62030       -0.00124
H          3.12305        3.10705        0.11939
H          4.50921        1.45216        0.97446
H          4.60816       -0.28314        1.16933
H          3.49325        0.62866        3.14495
H          2.29006        1.46871        2.17176
H          1.28227       -0.61854        2.98959
H          2.66037       -1.56160        2.38056
H         -0.23160        0.01854       -1.17673
H         -0.34109       -1.72294       -0.97691
H         -2.44378       -2.77805       -0.71960
H         -4.93681       -2.65272       -0.64506
H         -2.15306        1.49611       -0.21890
H         -6.41520        1.19918        1.19537
H         -6.97692        1.74059       -0.44161
H          1.71773       -1.06994       -1.13166
H          2.89782       -1.81085       -0.05636
