61
mol_0114_0001.log	Energy: -1139470.8610499
C         -6.12575       -2.29466       -1.68376
C         -5.71406       -1.25093       -0.68628
C         -6.52494       -0.88430        0.33070
C         -6.15296        0.12534        1.31350
O         -6.83156        0.48781        2.24223
O         -4.91200        0.70969        1.15698
C         -4.07232        0.36496        0.14594
C         -2.85132        1.02606        0.10780
C         -1.93165        0.72239       -0.89684
N         -0.71367        1.41502       -0.86353
C          0.46576        1.07489       -1.46961
O          0.55364        0.21036       -2.33143
C          1.68349        1.85546       -1.04371
C          2.64957        1.99950       -2.04602
C          3.85040        2.65275       -1.80779
C          4.11874        3.15104       -0.53659
C          3.18167        2.99530        0.47804
C          1.95492        2.36758        0.24088
S          0.84840        2.34776        1.65303
C          0.54689        0.56452        1.96325
C          1.77678       -0.28193        1.63126
O          2.84892        0.02144        2.14399
N          1.64558       -1.30055        0.73938
C          0.39191       -1.89003        0.28505
C          2.84986       -2.01047        0.26025
C          3.53229       -2.83534        1.35851
C          4.71044       -3.62617        0.78045
C          5.70202       -2.70122        0.06772
C          5.00617       -1.89052       -1.02983
C          3.82717       -1.08583       -0.47343
C         -2.24996       -0.24345       -1.86804
C         -3.47277       -0.88824       -1.80425
C         -4.41432       -0.60819       -0.80240
H         -5.42441       -3.13692       -1.67969
H         -6.13720       -1.88091       -2.69860
H         -7.12354       -2.67836       -1.45873
H         -7.50570       -1.32418        0.47383
H         -2.63559        1.77176        0.86814
H         -0.64033        2.12451       -0.13912
H          2.43786        1.57295       -3.02107
H          4.57774        2.75828       -2.60699
H          5.06314        3.64353       -0.32493
H          3.40338        3.33957        1.48262
H         -0.36380        0.26896        1.44773
H          0.37315        0.50112        3.04128
H          0.39928       -2.96328        0.50916
H          0.27380       -1.75174       -0.79484
H         -0.47419       -1.46267        0.78642
H          2.46826       -2.71651       -0.48951
H          2.79964       -3.51504        1.81326
H          3.88532       -2.15885        2.14282
H          4.33791       -4.37507        0.06521
H          5.21285       -4.18002        1.58216
H          6.14288       -2.01200        0.80165
H          6.52654       -3.28621       -0.35750
H          4.64781       -2.57662       -1.81205
H          5.71826       -1.21050       -1.51231
H          4.19152       -0.31570        0.21358
H          3.29306       -0.58062       -1.28504
H         -1.53989       -0.47496       -2.64909
H         -3.70580       -1.63150       -2.56068
