50
mol_0365_0001.log	Energy: -742267.5343888
C          9.10295        1.30705        0.84571
C          7.80712        0.65179        1.27636
O          6.96500        0.58108        0.12183
C          5.74917        0.02408        0.26591
C          4.94806       -0.03662       -0.88882
C          3.68981       -0.60061       -0.78814
C          2.77193       -0.67414       -1.99019
N          1.57631        0.14095       -1.84325
C          0.42151       -0.41026       -1.31957
O          0.30167       -1.60924       -1.11020
N         -0.56968        0.52121       -1.09476
C         -1.85611        0.31847       -0.55837
C         -2.35105       -0.93185       -0.18639
C         -3.64161       -1.04443        0.32997
C         -4.18259       -2.40132        0.70420
C         -4.43059        0.10126        0.48786
N         -5.73654       -0.03528        1.04341
C         -6.89857        0.18296        0.35058
C         -8.17524       -0.08892        1.12254
O         -6.91849        0.59606       -0.79779
C         -3.94451        1.36555        0.12882
C         -4.78001        2.60527        0.29624
C         -2.65908        1.45092       -0.39653
C          3.27320       -1.08628        0.46402
C          4.14299       -0.97313        1.53148
N          5.36869       -0.42595        1.44953
H          9.78094        1.38153        1.70250
H          8.92131        2.31496        0.45982
H          9.59596        0.72027        0.06452
H          7.97182       -0.35919        1.66380
H          7.29993        1.22825        2.05734
H          5.33394        0.35463       -1.82545
H          2.43495       -1.70141       -2.14687
H          3.30296       -0.35032       -2.89091
H          1.74137        1.12573       -1.68495
H         -0.39274        1.46191       -1.41613
H         -1.73687       -1.81248       -0.31756
H         -5.15815       -2.57728        0.23783
H         -4.31435       -2.50121        1.78970
H         -3.50067       -3.19316        0.38386
H         -5.80983       -0.48438        1.94504
H         -8.67099        0.86585        1.32351
H         -8.01746       -0.60786        2.07293
H         -8.84271       -0.68222        0.49317
H         -4.16350        3.50624        0.22498
H         -5.28632        2.61053        1.26756
H         -5.55566        2.64730       -0.47556
H         -2.27360        2.42983       -0.67777
H          2.29731       -1.54603        0.58381
H          3.86119       -1.33990        2.51556
