36
mol_0472_0001.log	Energy: -387151.4903196
C         -0.24102        3.28508        0.18515
C         -1.05317        2.29748       -0.18728
C         -1.41492        1.12338        0.68693
N         -1.30375       -0.16980        0.01726
C         -0.12134       -0.85701       -0.09732
O         -0.07090       -1.97488       -0.60386
C          1.14755       -0.22138        0.46221
C          1.38729       -0.74764        1.88514
C          2.32665       -0.54291       -0.46337
N          3.51673        0.18844       -0.05009
C          4.69500       -0.17212       -0.82281
C         -2.53603       -0.83019       -0.44155
C         -3.36234        0.07258       -1.35773
C         -3.34922       -1.36278        0.74054
H         -0.02921        4.12618       -0.46857
H          0.23915        3.28945        1.16265
H         -1.51197        2.31217       -1.17484
H         -2.45603        1.23001        1.00969
H         -0.82076        1.13692        1.60634
H          1.04666        0.86773        0.49457
H          2.33380       -0.35636        2.26725
H          0.58204       -0.45525        2.56951
H          1.44158       -1.84153        1.87435
H          2.04427       -0.32899       -1.51030
H          2.54273       -1.61528       -0.41282
H          3.34564        1.18636       -0.14484
H          4.56014       -0.06781       -1.91475
H          4.95631       -1.21571       -0.61609
H          5.53984        0.45181       -0.51558
H         -2.18797       -1.68419       -1.02458
H         -2.76686        0.41089       -2.21195
H         -4.22126       -0.48645       -1.74354
H         -3.75530        0.95390       -0.83606
H         -3.72599       -0.55387        1.37894
H         -2.73540       -2.03081        1.35258
H         -4.21565       -1.92743        0.37922
