44
mol_0052_0001.log	Energy: -921224.7399566
C         -8.71032       -1.38602        0.12523
C         -7.27990       -0.90786        0.09382
C         -6.95484        0.43877        0.22576
C         -5.63041        0.88539        0.19504
C         -4.60501       -0.03951        0.02793
O         -3.27432        0.28550       -0.01611
C         -2.90669        1.64130        0.09898
C         -1.39283        1.79720        0.01352
O         -0.90439        2.91077        0.10176
N         -0.70652        0.63241       -0.15898
C          0.67868        0.43859       -0.27364
C          1.13000       -0.88325       -0.39355
C          2.48324       -1.15773       -0.51381
C          3.39677       -0.10466       -0.51867
S          5.14336       -0.45413       -0.58614
O          5.80993        0.71831       -1.12933
O          5.30444       -1.77275       -1.17881
N          5.64010       -0.58679        1.00644
C          5.62792        0.65072        1.78031
C          5.13172       -1.74528        1.73361
C          2.95723        1.21155       -0.40597
C          1.60067        1.49228       -0.28321
C         -4.90562       -1.39701       -0.10658
C         -6.22595       -1.81724       -0.07300
H         -8.98337       -1.88025       -0.81416
H         -8.86912       -2.10837        0.93399
H         -9.40479       -0.55453        0.27891
H         -7.74704        1.17197        0.35675
H         -5.42732        1.94524        0.30218
H         -3.22653        2.05997        1.06140
H         -3.34540        2.24173       -0.70782
H         -1.28881       -0.19504       -0.20442
H          0.41466       -1.70211       -0.39935
H          2.83131       -2.17947       -0.62561
H          6.25174        0.49924        2.66575
H          6.05684        1.45902        1.18768
H          4.61230        0.92663        2.10658
H          5.21424       -2.63587        1.11013
H          4.08568       -1.60906        2.05253
H          5.75367       -1.88371        2.62249
H          3.67570        2.02452       -0.43700
H          1.25470        2.51363       -0.20208
H         -4.09504       -2.10758       -0.23712
H         -6.44553       -2.87726       -0.17949
