41
mol_0422_0001.log	Energy: -774036.1995241
C         -3.69640       -1.10794        1.27127
C         -4.25387       -0.31992        0.07278
C         -5.68759       -0.77874       -0.24610
C         -3.39133       -0.57171       -1.18204
N         -2.00231       -0.20092       -1.03996
C         -1.03504       -1.12346       -0.74785
O         -1.24716       -2.33075       -0.71049
N          0.20492       -0.55659       -0.51445
C          1.40158       -1.21499       -0.20491
C          1.53784       -2.58877       -0.01599
C          2.77767       -3.14590        0.30628
C          3.86878       -2.31431        0.43601
F          5.07653       -2.83567        0.75068
C          3.78197       -0.93959        0.25308
C          2.54457       -0.39981       -0.06996
O          2.32799        0.93506       -0.28431
C          3.38979        1.83180       -0.07217
C          2.85029        3.22085       -0.34452
F          3.88545        4.10550       -0.25044
F          1.92612        3.56250        0.59481
C         -4.23799        1.18672        0.38568
N         -5.01262        1.60097        1.42247
O         -3.56594        1.99066       -0.25381
H         -2.70180       -0.75215        1.55721
H         -4.34854       -1.02858        2.14845
H         -3.60701       -2.16649        1.00863
H         -5.67978       -1.83548       -0.53557
H         -6.11851       -0.20122       -1.07142
H         -6.35532       -0.68267        0.61664
H         -3.81259       -0.01784       -2.02717
H         -3.42043       -1.63751       -1.42101
H         -1.83982        0.78797       -0.90299
H          0.29277        0.44603       -0.59967
H          0.66558       -3.21870       -0.12454
H          2.88536       -4.21450        0.45434
H          4.67278       -0.33340        0.36507
H          3.75401        1.78364        0.96187
H          4.21863        1.63522       -0.76407
H          2.38802        3.32855       -1.32895
H         -4.98972        2.57806        1.67525
H         -5.54738        0.96887        1.99573
