42
mol_0142_0001.log	Energy: -710237.3806173
C         -1.56048       -2.51128       -0.64528
C         -2.98642       -2.22361       -0.25109
C         -3.91758       -3.24865       -0.12009
C         -5.22415       -2.95366        0.25583
N         -5.64677       -1.71511        0.50286
C         -4.77007       -0.71613        0.37863
C         -3.43390       -0.91551        0.00586
N         -2.50456        0.13435       -0.12411
C         -2.65497        1.46758        0.16924
O         -3.70159        1.97478        0.53828
C         -1.40613        2.28439       -0.01949
C         -1.55403        3.62809       -0.37098
C         -0.42837        4.41833       -0.56948
C          0.84626        3.87685       -0.40785
C          1.00399        2.54527       -0.02720
C          2.37897        1.97944        0.21977
O          2.38593        0.61975       -0.17998
C          3.50859       -0.11582        0.02973
C          4.69638        0.38509        0.56770
C          5.78391       -0.47503        0.73491
C          5.71294       -1.81553        0.37738
C          4.51489       -2.27334       -0.15681
F          4.41781       -3.57070       -0.51395
C          3.41338       -1.46163       -0.33993
C         -0.12842        1.75536        0.16811
H         -0.85223       -2.16129        0.11689
H         -1.40344       -3.58569       -0.76809
H         -1.29511       -2.03435       -1.59818
H         -3.62394       -4.27807       -0.30683
H         -5.96117       -3.74591        0.36303
H         -5.13253        0.28270        0.58296
H         -1.61794       -0.12125       -0.53131
H         -2.55361        4.03421       -0.48834
H         -0.54080        5.45850       -0.86006
H          1.72212        4.49908       -0.57733
H          2.63001        2.04698        1.28838
H          3.13121        2.54511       -0.34606
H          4.79231        1.42551        0.85434
H          6.70591       -0.08315        1.15371
H          6.55006       -2.49271        0.50207
H          2.49528       -1.85320       -0.76289
H          0.00963        0.72745        0.49196
