39
mol_0462_0001.log	Energy: -435092.4178282
C         -2.39509        2.11657       -0.28716
C         -2.76600        0.64850       -0.06634
C         -4.22795        0.41080       -0.47329
C         -4.74131       -1.00653       -0.26651
O         -4.54924       -1.36200        1.09645
C         -1.81493       -0.29399       -0.83172
N         -0.38523       -0.09798       -0.64063
C          0.06723       -0.21550        0.73470
C          1.57299       -0.02802        0.83983
C          2.37727       -1.03905        0.02838
N          3.80313       -0.74318        0.12507
C          4.59731       -1.71452       -0.60067
C          4.05738        0.61239       -0.33715
C          3.23261        1.59753        0.47698
O          1.85295        1.29743        0.40291
H         -2.41508        2.37031       -1.35624
H         -1.39360        2.34561        0.09399
H         -3.10094        2.78015        0.22552
H         -2.68746        0.42704        1.00520
H         -4.86972        1.09499        0.09662
H         -4.35967        0.66482       -1.53594
H         -4.21223       -1.71161       -0.92415
H         -5.80902       -1.04488       -0.52783
H         -4.89676       -2.24863        1.24351
H         -2.03692       -1.33271       -0.55543
H         -2.01373       -0.20238       -1.90957
H         -0.09023        0.80107       -1.01022
H         -0.40304        0.51313        1.41736
H         -0.19508       -1.21634        1.10289
H          1.86781       -0.11806        1.89867
H          2.02518       -1.02451       -1.01866
H          2.19807       -2.04308        0.43118
H          4.36917       -1.72655       -1.68462
H          4.41028       -2.71642       -0.20049
H          5.66179       -1.48964       -0.47536
H          3.80632        0.72647       -1.41139
H          5.12297        0.83972       -0.21352
H          3.34891        2.61405        0.09219
H          3.56096        1.57293        1.52807
