56
mol_0318_0001.log	Energy: -723646.1515765
C         -5.90321        4.20853        0.67907
C         -6.35298        2.82327        0.21673
C         -5.20931        1.81318        0.25756
C         -5.63440        0.42581       -0.21140
O         -6.73902        0.22779       -0.70786
N         -4.74090       -0.59629       -0.05069
C         -5.16754       -1.94804       -0.42164
C         -4.36290       -2.98194        0.35744
C         -2.85607       -2.87877        0.06856
C         -2.44198       -1.42012       -0.22306
C         -1.01900       -1.14519        0.25176
O         -0.70057       -1.31039        1.42143
N         -0.17053       -0.68589       -0.71470
C          1.18928       -0.31004       -0.59947
C          1.90836       -0.36051        0.59264
C          3.24947        0.02857        0.62052
C          3.88636        0.47615       -0.53674
O          5.17713        0.89022       -0.61189
C          5.98093        0.89135        0.57084
C          7.28614        1.59868        0.20348
C          8.16842        0.48021       -0.35791
C          7.89414       -0.68122        0.60806
C          6.39854       -0.54420        0.97959
C          3.16203        0.52151       -1.73367
C          1.83404        0.13433       -1.76162
C         -3.39104       -0.43471        0.47802
H         -5.52515        4.18342        1.70854
H         -5.10197        4.60115        0.04071
H         -6.73337        4.92204        0.64687
H         -7.17372        2.46287        0.84643
H         -6.75336        2.87285       -0.80075
H         -4.80009        1.75017        1.27482
H         -4.38551        2.16759       -0.37938
H         -6.23508       -2.03243       -0.20914
H         -5.04711       -2.09665       -1.50500
H         -4.54939       -2.83602        1.42822
H         -4.72952       -3.98325        0.10978
H         -2.58811       -3.50362       -0.79106
H         -2.28886       -3.24615        0.92923
H         -2.52539       -1.22872       -1.30113
H         -0.55729       -0.60296       -1.64361
H          1.42727       -0.70593        1.49758
H          3.78041       -0.03551        1.56333
H          5.43485        1.42280        1.35980
H          7.73764        2.00452        1.11818
H          7.10938        2.42851       -0.48616
H          7.83956        0.22253       -1.37158
H          9.22729        0.75278       -0.40744
H          8.12713       -1.65911        0.17628
H          8.51631       -0.56615        1.50418
H          6.22649       -0.72150        2.04658
H          5.78501       -1.26733        0.43335
H          3.65929        0.86868       -2.63369
H          1.28994        0.18015       -2.70317
H         -3.04735        0.58575        0.29806
H         -3.35536       -0.60741        1.56195
