44
mol_0005_0001.log	Energy: -827113.9916556
C          4.94566       -0.24650        1.63106
S          4.62433        0.24077       -0.06463
O          5.25832       -0.74783       -0.92432
O          4.94747        1.65574       -0.17475
N          2.98202        0.09712       -0.28470
C          2.12660        1.06992        0.40423
C          0.77800        1.13956       -0.30553
C          0.11272       -0.23964       -0.40492
C          1.08603       -1.22918       -1.04515
C          2.42676       -1.26117       -0.31735
C         -1.25282       -0.18003       -1.12189
C         -2.25324       -0.74013       -0.09721
N         -3.61870       -0.26890       -0.25974
C         -3.86180        1.13602        0.04548
C         -5.27738        1.50492       -0.38015
O         -6.23338        0.69655        0.27623
C         -6.00640       -0.67354        0.01165
C         -4.60312       -1.09563        0.42864
C         -1.52181       -0.46227        1.22827
O         -0.16576       -0.72163        0.92655
H          6.02177       -0.15776        1.79340
H          4.62833       -1.28178        1.77119
H          4.40739        0.42461        2.30338
H          1.97071        0.77405        1.45394
H          2.62074        2.04229        0.37895
H          0.11908        1.82686        0.23957
H          0.91958        1.54440       -1.31504
H          1.25507       -0.93937       -2.08882
H          0.64022       -2.23028       -1.03492
H          3.12938       -1.90759       -0.84534
H          2.28237       -1.64782        0.70387
H         -1.26185       -0.76340       -2.04674
H         -1.50194        0.85195       -1.38904
H         -2.28773       -1.82911       -0.22126
H         -3.14872        1.76728       -0.49432
H         -3.75761        1.35200        1.12480
H         -5.50588        2.53782       -0.10580
H         -5.37545        1.39159       -1.47148
H         -6.76103       -1.22714        0.57593
H         -6.14289       -0.87334       -1.06314
H         -4.44625       -2.14470        0.15275
H         -4.51490       -1.01442        1.52907
H         -1.81383       -1.12350        2.04777
H         -1.65754        0.58092        1.55403
