32
mol_0456_0001.log	Energy: -1243307.0101939
O          3.96990       -0.43453        1.95745
C          3.71811        0.47596        0.89819
C          4.98631        1.30535        0.70074
C          6.15879        0.45457        0.20557
C          5.79315       -0.28814       -1.08199
C          4.52710       -1.13525       -0.90222
C          3.37417       -0.25307       -0.41432
S          1.88039       -1.31881       -0.23302
C          0.64629       -0.08993       -0.29465
N          0.74343        1.18754       -0.47684
N         -0.55590        1.68173       -0.45684
C         -1.33090        0.66504       -0.26430
C         -2.77301        0.63907       -0.16402
C         -3.60961        1.72069       -0.25536
C         -4.97955        1.37208       -0.11517
C         -5.14182        0.03034        0.07910
Cl        -6.63130       -0.80482        0.29414
S         -3.64696       -0.83731        0.09642
O         -0.63687       -0.50050       -0.14869
H          3.15517       -0.91872        2.14716
H          2.88797        1.14340        1.16222
H          4.76615        2.10058       -0.02411
H          5.23062        1.79076        1.65139
H          6.43206       -0.26960        0.98207
H          7.03375        1.09268        0.03681
H          6.61933       -0.93410       -1.40015
H          5.62859        0.43817       -1.89108
H          4.72107       -1.92694       -0.16772
H          4.25309       -1.61737       -1.84693
H          3.12558        0.49420       -1.17538
H         -3.24426        2.72777       -0.41746
H         -5.80300        2.07411       -0.15541
