43
mol_0105_0001.log	Energy: -682070.1736811
C         -8.06922       -1.13969       -0.17490
C         -6.58348       -0.89375       -0.10308
C         -5.70225       -1.88060        0.33861
C         -4.33160       -1.63867        0.40187
C         -3.80934       -0.40037        0.02355
C         -2.36257       -0.17399        0.10117
N         -1.83888        0.94299       -0.22979
N         -0.48705        1.04047       -0.11937
C          0.16970        2.21066       -0.42727
O         -0.38751        3.21815       -0.81219
C          1.68413        2.15331       -0.21738
C          2.06257        2.04939        1.27506
C          2.37122        0.57777        1.50246
O          2.58344        0.02750        2.56764
N          2.37112       -0.04480        0.27526
C          2.92435       -1.38200        0.12127
C          4.38937       -1.38086       -0.16765
C          5.49205       -1.35801        0.62760
C          6.62196       -1.29571       -0.25144
C          6.11572       -1.28398       -1.51129
O          4.76055       -1.33260       -1.47856
C          2.35407        0.90518       -0.83022
C         -4.68898        0.59704       -0.42181
C         -6.05098        0.34754       -0.48149
H         -8.44270       -0.99652       -1.19527
H         -8.32254       -2.15745        0.13673
H         -8.61416       -0.44357        0.47301
H         -6.08836       -2.85180        0.63860
H         -3.66378       -2.42357        0.75121
H         -1.74835       -1.01242        0.46094
H          0.05074        0.23675        0.20103
H          2.06725        3.06734       -0.67149
H          1.28725        2.39572        1.96263
H          2.97377        2.61739        1.49417
H          2.38636       -1.89554       -0.68255
H          2.73991       -1.90935        1.05991
H          5.49031       -1.37724        1.70859
H          7.66732       -1.26987        0.02145
H          6.56151       -1.25391       -2.49356
H          3.37472        1.13252       -1.16594
H          1.80210        0.49446       -1.68211
H         -4.28812        1.56201       -0.71683
H         -6.72163        1.13059       -0.82870
