23
mol_0124_0001.log	Energy: -1127470.0535556
C          2.79795        0.92414        2.20867
O          1.91215        0.47961        1.18335
C          2.41957       -0.04676        0.06514
S          4.04023       -0.24937       -0.24848
N          1.42666       -0.40550       -0.78740
C          1.74248       -1.04420       -2.06235
C          0.04881       -0.20773       -0.45421
C         -0.50681        1.06663       -0.53298
C         -1.85469        1.22630       -0.23743
Cl        -2.56436        2.81700       -0.32351
C         -2.65870        0.14783        0.11918
C         -2.07539       -1.11289        0.18038
Cl        -3.06024       -2.48131        0.62601
C         -0.72694       -1.30725       -0.09735
H          2.14368        1.30714        2.99168
H          3.40154        0.09217        2.57886
H          3.45551        1.71085        1.83145
H          2.26052       -1.99473       -1.90260
H          2.38894       -0.39649       -2.66094
H          0.80558       -1.21785       -2.59340
H          0.10894        1.91444       -0.81098
H         -3.71023        0.28678        0.34207
H         -0.28138       -2.29397       -0.03226
