37
mol_0140_0001.log	Energy: -470715.2613292
C          5.46566       -1.13067        0.00932
C          4.40221       -0.78815       -1.01786
O          3.60037        0.32959       -0.58952
C          2.58575        0.07312        0.24648
O          2.28124       -1.03501        0.62929
C          1.89013        1.35905        0.68535
N          0.58613        1.16583        1.27285
C         -0.44763        0.72251        0.33641
C         -0.96668        1.88259       -0.51558
C         -2.13138        1.41182       -1.38100
O         -3.17215        0.84508       -0.60788
C         -2.76116       -0.26583        0.18008
C         -2.59933       -1.56222       -0.67056
C         -4.04981       -1.95179       -0.29964
C         -4.02281       -0.88044        0.81615
C         -1.62229        0.13063        1.11146
H          6.09662       -0.26122        0.21880
H          5.00920       -1.47432        0.94161
H          6.10300       -1.93382       -0.37615
H          4.84667       -0.45280       -1.95685
H          3.74492       -1.63986       -1.21033
H          2.55247        1.84388        1.41402
H          1.83102        2.04079       -0.16789
H          0.66347        0.48743        2.02603
H         -0.06125       -0.06332       -0.33972
H         -0.18212        2.28694       -1.16765
H         -1.29590        2.68858        0.15124
H         -2.58491        2.24739       -1.91995
H         -1.77430        0.68383       -2.12808
H         -1.85395       -2.24037       -0.24147
H         -2.37701       -1.42588       -1.73291
H         -4.76024       -1.70405       -1.09248
H         -4.21546       -2.98632        0.01351
H         -4.87497       -0.19922        0.88736
H         -3.81294       -1.30416        1.80418
H         -1.29646       -0.75090        1.67878
H         -1.99222        0.87560        1.82934
