36
mol_0344_0001.log	Energy: -1076632.8395806
C         -2.76047        2.50463        1.46295
N         -1.77638        2.92933        0.48409
C         -1.82309        4.07570       -0.27918
C         -0.73221        4.02391       -1.10238
N         -0.02095        2.87274       -0.87006
C         -0.67295        2.24244        0.08422
C         -0.29152        0.89371        0.62915
N          1.01553        0.56809        0.09629
C          1.84143       -0.28782        0.75336
O          1.49777       -0.85769        1.78610
C          3.18624       -0.49722        0.14704
C          3.65897       -0.01980       -1.11934
C          4.94680       -0.38985       -1.36759
S          5.60270       -1.32111       -0.07146
C          4.14003       -1.21850        0.81355
C         -1.33547       -0.16698        0.28724
C         -1.93581       -0.19244       -0.97300
C         -2.88549       -1.15786       -1.28993
C         -3.23299       -2.10466       -0.33032
Cl        -4.43330       -3.31690       -0.71659
C         -2.64255       -2.10267        0.92824
C         -1.69193       -1.13011        1.22933
H         -3.34421        3.37264        1.77417
H         -2.26082        2.08717        2.34045
H         -3.42630        1.74699        1.03985
H         -2.60754        4.80753       -0.15464
H         -0.41392        4.74561       -1.84101
H         -0.20457        0.94129        1.72281
H          1.34783        1.17315       -0.64522
H          3.07339        0.55770       -1.82612
H          5.54345       -0.17111       -2.24297
H          4.02761       -1.68620        1.78234
H         -1.66244        0.55194       -1.71745
H         -3.35305       -1.17583       -2.26887
H         -2.91648       -2.85423        1.66121
H         -1.20371       -1.13597        2.19957
