42
mol_0220_0001.log	Energy: -645119.3582551
C         -0.34835        2.05727       -1.74036
C          0.81063        2.50730       -0.85050
C          2.20460        2.28389       -1.45148
C          2.45969        0.86898       -1.95570
O          2.07353       -0.11349       -0.98070
C          2.96989       -0.47965       -0.05748
O          4.12193       -0.11298       -0.03315
C          2.37739       -1.47782        0.94438
C          2.83414       -2.89408        0.59210
N          0.93307       -1.41006        1.00277
C          0.34545       -0.27911        1.50025
O          0.95224        0.51306        2.21728
C         -1.04999       -0.04259        1.09219
C         -1.87563        1.03866        1.48800
C         -1.56838        2.11659        2.47062
N         -3.04807        1.04170        0.84914
N         -2.99261       -0.02690        0.02613
C         -3.96141       -0.40998       -0.83529
C         -3.72479       -1.50950       -1.61209
C         -2.48163       -2.17986       -1.47045
N         -1.54264       -1.80911       -0.62956
C         -1.79522       -0.72189        0.13174
H         -0.30577        2.53272       -2.72889
H         -0.33889        0.97076       -1.88654
H         -1.30930        2.31906       -1.28305
H          0.70573        3.57673       -0.62856
H          0.75257        1.98998        0.11224
H          2.35857        2.95621       -2.30746
H          2.96524        2.53977       -0.70539
H          3.51210        0.72635       -2.21433
H          1.83969        0.63755       -2.82489
H          2.77782       -1.19242        1.91952
H          2.47652       -3.59651        1.35024
H          2.44103       -3.20381       -0.38336
H          3.92557       -2.93804        0.55401
H          0.42282       -1.89849        0.27258
H         -2.44365        2.75775        2.59971
H         -1.27222        1.69092        3.43281
H         -0.72152        2.71495        2.12146
H         -4.85986        0.19552       -0.84420
H         -4.46837       -1.85629       -2.31840
H         -2.26637       -3.05403       -2.07987
