40
mol_0026_0001.log	Energy: -1054364.3449084
C          0.78150        2.65518        0.29552
C          1.85545        1.61548        0.28103
N          3.12984        1.95947        0.12544
N          3.83771        0.81289        0.18824
C          5.27976        0.82986        0.05744
C          3.02661       -0.24407        0.38858
Cl         3.63767       -1.84161        0.55698
C          1.72269        0.21279        0.45307
C          0.48968       -0.58813        0.66721
S          0.08322       -1.67058       -0.77132
O         -1.16517       -2.43900       -0.37195
C         -0.43967       -0.37241       -1.95418
C         -1.61585        0.51577       -1.54489
O         -1.61629        1.70437       -1.85084
N         -2.61165       -0.09749       -0.87940
C         -3.75754        0.63392       -0.34895
C         -3.39133        1.39760        0.93303
C         -3.36840        0.31651        2.03431
C         -4.27376       -0.83633        1.51805
C         -4.80746       -0.36313        0.14854
H          1.23864        3.64661        0.24935
H          0.09464        2.54824       -0.55054
H          0.18987        2.59245        1.21642
H          5.56629        1.86720       -0.11165
H          5.75286        0.45960        0.97094
H          5.59478        0.21576       -0.79037
H         -0.38334        0.04118        0.86568
H          0.58910       -1.30444        1.48956
H          0.42768        0.26320       -2.15188
H         -0.68723       -0.91501       -2.87255
H         -2.46973       -1.07573       -0.61944
H         -4.12780        1.29808       -1.13402
H         -2.45023        1.94551        0.82866
H         -4.17714        2.13590        1.13453
H         -2.34900       -0.05050        2.19682
H         -3.71346        0.71538        2.99304
H         -3.69087       -1.75687        1.40495
H         -5.09127       -1.06306        2.20883
H         -5.75671        0.17062        0.27067
H         -4.97879       -1.18277       -0.55689
