39
mol_0300_0001.log	Energy: -968945.2097869
C          4.44062       -2.88150       -0.09367
C          5.08461       -1.49108       -0.16553
C          5.88882       -1.37031       -1.47378
C          6.02163       -1.30173        1.04235
C          4.00171       -0.43814       -0.13705
C          2.62710       -0.52425       -0.05928
C          2.18092        0.81612       -0.07336
C          0.81600        1.31399       -0.01079
N         -0.20630        0.52078        0.03583
N         -1.32974        1.28573        0.10482
C         -2.67931        1.05756        0.12089
C         -3.33951       -0.24993        0.11431
C         -4.46033       -0.44359       -0.70020
C         -5.09789       -1.67078       -0.69160
F         -6.17449       -1.84863       -1.48402
C         -4.66617       -2.72864        0.09508
C         -3.55905       -2.53871        0.91583
C         -2.92065       -1.30888        0.91907
F         -1.88104       -1.12865        1.75545
N         -3.29450        2.22225        0.09865
N         -2.36488        3.23536        0.06637
C         -1.19997        2.64354        0.07201
S          0.48935        3.05614        0.00709
N          3.19268        1.67493       -0.15275
N          4.27594        0.89526       -0.18980
H          3.77138       -3.05535       -0.94331
H          5.21878       -3.65203       -0.11418
H          3.86561       -3.00739        0.83017
H          5.23746       -1.48498       -2.34650
H          6.39568       -0.40146       -1.55508
H          6.65892       -2.14882       -1.51381
H          6.53123       -0.33125        1.01713
H          5.46604       -1.36709        1.98367
H          6.79400       -2.07903        1.04323
H          2.01708       -1.41230        0.00212
H         -4.82267        0.36364       -1.32685
H         -5.19297       -3.67609        0.06759
H         -3.19471       -3.32890        1.56296
H          5.18084        1.33616       -0.25101
