52
mol_0187_0001.log	Energy: -873462.7576013
C         -9.89693       -2.16197       -0.11709
O         -9.48508       -0.81403       -0.06266
C         -8.14934       -0.55283       -0.04393
C         -7.79145        0.79851        0.00918
C         -6.45771        1.16400        0.03155
C         -5.44454        0.19474        0.00168
N         -4.11088        0.65958        0.02751
C         -2.95767       -0.06730        0.00335
O         -2.91480       -1.29080       -0.04453
C         -1.69292        0.74754        0.03966
C         -1.79266        2.16936        0.09397
N         -1.94705        3.32101        0.13741
C         -0.50955        0.08284        0.01809
C          0.83121        0.58652        0.03966
C          1.30985        1.94148        0.08495
C          2.67249        1.90780        0.08233
C          3.67487        3.01243        0.14067
N          3.05666        0.56741        0.04077
C          4.40623        0.11144        0.02464
C          4.95665       -0.46241        1.16959
C          6.27202       -0.90763        1.14942
C          7.03867       -0.77098       -0.01018
C          8.44464       -1.26030        0.02065
O          8.97284       -1.77336        0.98133
O          9.09266       -1.07653       -1.14573
C          6.48381       -0.18995       -1.15333
C          5.16467        0.24793       -1.13637
C          1.95330       -0.24163        0.01437
C          2.07999       -1.72852       -0.04498
C         -5.80018       -1.15124       -0.05101
C         -7.14766       -1.52043       -0.07361
H         -9.54990       -2.72178        0.76120
H         -9.53618       -2.65353       -1.03001
H        -10.98733       -2.14188       -0.12463
H         -8.57475        1.54929        0.03226
H         -6.19825        2.21983        0.07273
H         -4.01335        1.66596        0.06735
H         -0.63221       -0.99777       -0.02085
H          0.71256        2.84104        0.12144
H          4.27650        3.07579       -0.77332
H          4.36638        2.88871        0.98217
H          3.15256        3.96385        0.26648
H          4.35250       -0.54937        2.06751
H          6.72084       -1.35782        2.02887
H          9.99113       -1.42372       -1.02850
H          7.08005       -0.08747       -2.05316
H          4.71397        0.69081       -2.01930
H          1.11693       -2.19151       -0.26754
H          2.43785       -2.14342        0.90432
H          2.78688       -2.03382       -0.82419
H         -5.03093       -1.91086       -0.07463
H         -7.38809       -2.57689       -0.11471
