49
mol_0128_0001.log	Energy: -839786.2609069
O          0.46473       -2.70698       -0.74083
C          0.81353       -1.54362       -0.56527
N          2.10381       -1.11898       -0.66904
C          3.18827       -2.07686       -0.81554
C          4.54114       -1.37195       -0.67295
C          4.77037       -0.27461       -1.75153
C          4.78326        1.05435       -0.97386
N          4.12179        0.72576        0.28897
C          4.23286        1.72067        1.31028
C          3.23781        2.84626        1.30113
C          3.15351        1.76893        2.35448
C          4.64693       -0.59154        0.64800
N         -0.08880       -0.54109       -0.22562
C         -1.52373       -0.80313       -0.34635
C         -1.96670       -1.66558        0.85083
C         -3.41728       -2.08686        0.82392
F         -3.77258       -2.62593       -0.36235
F         -3.66213       -3.01878        1.76980
F         -4.27127       -1.06866        1.05903
C         -2.25540        0.51986       -0.44444
C         -2.10345        1.49702        0.54470
C         -2.77434        2.71247        0.46132
C         -3.60655        2.93212       -0.62613
F         -4.26356        4.10776       -0.71373
C         -3.78510        1.98924       -1.62428
C         -3.09863        0.78133       -1.52419
H          2.37240       -0.21921       -0.27249
H          3.09649       -2.86746       -0.05901
H          3.11866       -2.56234       -1.79600
H          5.31408       -2.14446       -0.72534
H          3.96205       -0.29006       -2.48904
H          5.70956       -0.42602       -2.29031
H          5.82107        1.39056       -0.79363
H          4.25215        1.86563       -1.48079
H          5.25300        1.95859        1.63322
H          2.49234        2.83600        0.51111
H          3.57635        3.83436        1.59696
H          3.43425        2.01803        3.37310
H          2.35229        1.04040        2.26538
H          5.69868       -0.52453        0.98347
H          4.05829       -1.02964        1.46144
H          0.18575        0.39950       -0.47677
H         -1.70786       -1.38193       -1.25881
H         -1.36498       -2.57797        0.84943
H         -1.79165       -1.13480        1.79141
H         -1.45530        1.30802        1.39716
H         -2.66633        3.47700        1.22327
H         -4.44717        2.20029       -2.45713
H         -3.23265        0.02791       -2.29575
