24
mol_0436_0001.log	Energy: -416549.9587901
N         -5.22353        0.88347        0.80157
C         -4.41524        0.72185       -0.00989
C         -3.40358        0.51831       -1.05265
C         -2.18797       -0.18684       -0.53202
N         -1.82393       -1.34890       -0.99665
O         -0.67468       -1.63013       -0.27490
C         -0.46935       -0.60209        0.55235
C          0.74145       -0.62007        1.42228
C          1.96537       -0.11884        0.67395
C          2.92641       -1.01161        0.19973
C          4.03740       -0.54520       -0.50092
C          4.19341        0.81880       -0.73433
C          3.23411        1.71530       -0.26504
C          2.12553        1.24834        0.43528
N         -1.37262        0.32601        0.44228
H         -3.11531        1.49672       -1.45197
H         -3.83987       -0.06789       -1.86656
H          0.53110        0.01648        2.28583
H          0.90489       -1.64008        1.78228
H          2.80661       -2.07789        0.37587
H          4.78027       -1.24959       -0.86386
H          5.05950        1.18307       -1.27917
H          3.35034        2.78055       -0.44274
H          1.37522        1.94784        0.79663
