57
mol_0464_0001.log	Energy: -1043786.7023901
C         -9.09748       -0.70301       -0.13129
O         -8.27078        0.44090       -0.08146
C         -6.93531        0.26484        0.08311
C         -6.16608        1.43454        0.09869
C         -4.79246        1.35833        0.25852
C         -4.16755        0.12013        0.41035
N         -2.74057        0.08517        0.60513
C         -2.29805       -0.38931        1.92061
S         -1.86339       -0.53519       -0.69578
O         -1.57202       -1.95105       -0.49316
O         -2.53476       -0.08384       -1.90388
C         -0.32510        0.35907       -0.53365
C         -0.26927        1.67759       -0.98330
C          0.92167        2.38041       -0.85163
C          2.03887        1.76486       -0.28646
C          1.97406        0.44156        0.15250
C          3.13917       -0.26292        0.79344
O          2.96818       -1.09045        1.68032
N          4.36668        0.08968        0.32945
C          5.59288       -0.52709        0.82758
C          5.90371       -1.83434        0.08230
C          6.30941       -1.58227       -1.37200
C          7.49166       -0.61211       -1.45656
C          7.19543        0.69827       -0.72015
C          6.77182        0.46023        0.73761
C          6.49506        1.76828        1.47756
C          0.77507       -0.26524        0.03519
C         -4.93227       -1.04102        0.39570
C         -6.31529       -0.97817        0.23171
H         -9.04965       -1.27076        0.80666
H         -8.82482       -1.35490       -0.97074
H        -10.11210       -0.33114       -0.27683
H         -6.66700        2.38955       -0.02274
H         -4.18522        2.25829        0.26275
H         -2.81573        0.20810        2.67389
H         -1.22220       -0.22761        2.03107
H         -2.51642       -1.45200        2.08039
H         -1.14600        2.13439       -1.43123
H          0.98123        3.41190       -1.18485
H          2.95506        2.33657       -0.16166
H          4.41256        0.62067       -0.52772
H          5.39697       -0.75762        1.87889
H          6.72575       -2.34043        0.60736
H          5.03174       -2.49407        0.14155
H          6.56097       -2.53134       -1.85876
H          5.45463       -1.17049       -1.92840
H          7.74507       -0.40737       -2.50338
H          8.37596       -1.08340       -1.00392
H          8.07623        1.35208       -0.73792
H          6.40636        1.25084       -1.25590
H          7.61146       -0.04263        1.23975
H          6.18824        1.58053        2.51263
H          7.39039        2.39972        1.49635
H          5.69376        2.33905        0.99382
H          0.71428       -1.29199        0.38209
H         -4.44768       -2.00828        0.49822
H         -6.88690       -1.89902        0.21532
