44
mol_0303_0001.log	Energy: -1220782.5485044
C          7.71127       -1.78026       -0.08102
C          6.38623       -1.07998        0.08460
C          5.72806       -0.51346       -1.01053
C          4.49247        0.10808       -0.86790
C          3.87711        0.18648        0.38531
C          2.57462        0.86407        0.53116
C          2.05444        1.38699        1.68457
S          0.51130        2.08654        1.39623
C          0.66245        1.63420       -0.27054
C         -0.44432        1.84694       -1.27765
C         -0.80589        3.26248       -1.40839
N         -1.04971        4.38763       -1.51659
C         -1.69850        0.99392       -0.92817
O         -2.76464        1.54923       -0.77123
C         -1.50992       -0.47511       -0.76027
C         -0.50411       -1.13265       -1.48219
C         -0.31389       -2.50233       -1.36342
C         -1.11610       -3.22994       -0.49107
C         -2.10259       -2.58360        0.24635
C         -2.33130       -1.21202        0.12302
C         -3.41520       -0.59485        0.97865
C         -4.76653       -0.43244        0.25972
Cl        -5.45994       -2.02008       -0.25189
C         -5.72806        0.24398        1.13372
N         -6.45829        0.79130        1.84527
N          1.76311        1.02024       -0.57356
C          4.52735       -0.38465        1.48389
C          5.76340       -1.00277        1.33372
H          8.31451       -1.71437        0.82992
H          7.56418       -2.84417       -0.30358
H          8.29007       -1.34854       -0.90357
H          6.19196       -0.55466       -1.99346
H          3.99957        0.54615       -1.73005
H          2.50740        1.43307        2.66507
H         -0.04222        1.51878       -2.24276
H          0.14977       -0.57741       -2.14497
H          0.46560       -2.99174       -1.93842
H         -0.97186       -4.30015       -0.37717
H         -2.71837       -3.15727        0.93296
H         -3.12589        0.40201        1.32380
H         -3.57156       -1.21555        1.86629
H         -4.63947        0.15874       -0.64736
H          4.06080       -0.36451        2.46538
H          6.24914       -1.44017        2.20296
