47
mol_0366_0001.log	Energy: -858182.0186673
C         -5.15035       -2.45264        0.00526
O         -4.15433       -2.45043        1.01242
C         -2.85893       -2.45406        0.63344
C         -2.41567       -2.66219       -0.67471
C         -1.05146       -2.61618       -0.95531
C         -0.11555       -2.35777        0.04573
C          1.30598       -2.12603       -0.29161
C          2.02314       -2.85455       -1.30109
C          3.29231       -2.49436       -1.59363
C          3.93644       -1.36789       -0.92837
O          5.07275       -0.97650       -1.15857
N          3.11912       -0.74906        0.02416
C          3.58079        0.46741        0.71430
C          3.71902        0.22803        2.21878
C          2.70610        1.71188        0.43034
O          3.23462        2.79114        0.22354
N          1.35726        1.50462        0.50137
C          0.30854        2.36955        0.16290
C          0.46317        3.74749       -0.02889
C         -0.64408        4.52384       -0.36612
C         -1.90692        3.96225       -0.51722
C         -2.02924        2.59147       -0.32151
N         -3.34595        1.95893       -0.49179
O         -4.29299        2.67885       -0.77004
O         -3.42067        0.74513       -0.34970
C         -0.95394        1.78525        0.01406
N          1.87670       -1.14173        0.34089
C         -0.57400       -2.17610        1.35962
C         -1.92384       -2.23086        1.65349
H         -5.14192       -3.39316       -0.55971
H         -5.01918       -1.60062       -0.67137
H         -6.10076       -2.35797        0.53048
H         -3.11680       -2.82808       -1.48419
H         -0.72826       -2.73702       -1.98649
H          1.54509       -3.69254       -1.79972
H          3.89018       -3.01152       -2.33604
H          4.55413        0.69306        0.27966
H          4.07454        1.14163        2.70357
H          2.76089       -0.05673        2.66404
H          4.44503       -0.56961        2.40126
H          1.09115        0.53598        0.66498
H          1.44301        4.19400        0.08062
H         -0.51422        5.59126       -0.51360
H         -2.77248        4.55756       -0.77986
H         -1.10195        0.71745        0.14744
H          0.14271       -1.98121        2.15220
H         -2.28514       -2.08459        2.66626
