48
mol_0327_0001.log	Energy: -1292515.0869658
O         -2.44138        3.05640        0.94198
C         -1.24841        3.05027        0.67205
C         -0.72407        3.60314       -0.65245
S         -0.91981        2.37478       -1.97788
C          0.35164        1.20066       -1.55620
N          1.38446        1.60948       -0.88676
C          2.37980        0.69259       -0.66666
C          3.57136        0.93210        0.08462
C          4.37851       -0.16481        0.09567
S          3.73938       -1.50639       -0.78664
C          2.33856       -0.58609       -1.18940
C          1.18755       -1.06969       -1.89192
O          1.02415       -2.20332       -2.32187
N          0.17833       -0.07993       -2.03209
C         -1.11195       -0.56260       -2.58126
C         -2.02578       -1.08683       -1.49299
C         -2.98536       -0.26586       -0.89147
C         -3.78181       -0.73700        0.14903
C         -3.60831       -2.04487        0.57164
F         -4.37019       -2.51006        1.58269
C         -2.68184       -2.89540       -0.01189
C         -1.89345       -2.40748       -1.04958
N         -0.28022        2.54951        1.47717
C         -0.56619        1.72487        2.64501
C          0.22480        0.43953        2.56210
C          1.38146        0.26079        3.32064
C          2.14817       -0.89661        3.18334
C          1.76235       -1.88361        2.28187
C          0.60543       -1.71297        1.52093
C         -0.15829       -0.56010        1.66198
H          0.31610        3.93173       -0.61057
H         -1.36177        4.43508       -0.95867
H          3.79796        1.87061        0.57556
H          5.34095       -0.26036        0.58156
H         -0.85507       -1.35593       -3.28311
H         -1.58069        0.24364       -3.14466
H         -3.10764        0.76186       -1.21611
H         -4.51575       -0.09907        0.62936
H         -2.58358       -3.91519        0.34486
H         -1.15355       -3.05333       -1.51290
H          0.63949        2.44906        1.06312
H         -0.31705        2.27347        3.56045
H         -1.64356        1.53719        2.65140
H          1.68748        1.03225        4.02438
H          3.04769       -1.02325        3.77946
H          2.36007       -2.78303        2.16649
H          0.30058       -2.47773        0.81242
H         -1.05817       -0.42876        1.06577
