38
mol_0253_0001.log	Energy: -705571.5642379
C          5.49716       -0.97679       -0.01046
C          4.14724       -1.15069       -0.23983
C          3.31128       -0.02889       -0.03383
N          1.94908       -0.06527       -0.17508
C          1.20428        1.18412       -0.30411
C         -0.22160        1.01949        0.20073
N         -0.87848       -0.07450       -0.49848
C         -2.32362       -0.20077       -0.29346
C         -3.06962        1.05196       -0.76381
C         -4.54012        0.75294       -1.08233
S         -5.34423       -0.35907        0.14209
C         -4.16440       -0.14278        1.51183
C         -2.74454       -0.59329        1.14783
C         -0.15879       -1.31046       -0.25007
C          1.27614       -1.21582       -0.75685
N          3.85840        1.14300        0.33773
C          5.17369        1.17715        0.52478
N          6.04561        0.18300        0.38122
H          6.18469       -1.80788       -0.15279
H          3.78004       -2.11213       -0.57340
H          1.72124        1.95473        0.26516
H          1.18209        1.48926       -1.36194
H         -0.19354        0.86290        1.29569
H         -0.75853        1.95285        0.00948
H         -2.63377       -1.01426       -0.96281
H         -3.01037        1.84600       -0.00941
H         -2.58745        1.43541       -1.67031
H         -4.61438        0.24130       -2.04702
H         -5.10837        1.68473       -1.15270
H         -4.55734       -0.73276        2.34454
H         -4.17806        0.90399        1.83211
H         -2.66662       -1.68016        1.26244
H         -2.05251       -0.14595        1.87342
H         -0.66290       -2.12867       -0.77686
H         -0.13316       -1.56701        0.82649
H          1.79287       -2.13252       -0.46926
H          1.27717       -1.14391       -1.85604
H          5.58172        2.13845        0.82959
