46
mol_0483_0001.log	Energy: -448680.6254558
C         -5.03184        1.25808       -0.59318
C         -3.68030        1.47390        0.08582
C         -2.62333        0.44846       -0.32690
C         -1.25743        0.76832        0.29619
N         -0.22462       -0.14257       -0.19494
C          1.09030        0.16343        0.36064
C          1.53731        1.62446        0.15365
C          3.08463        1.59166        0.09441
C          3.50858        0.09997        0.18855
C          3.82256       -0.26743        1.64987
C          4.74635       -0.21186       -0.65645
C          2.24026       -0.65043       -0.28766
N          2.15876       -0.70531       -1.74771
C         -0.61190       -1.52593        0.07731
C         -1.97932       -1.82955       -0.53707
N         -3.03872       -0.93798       -0.08243
C         -3.48138       -1.22672        1.27329
H         -5.44997        0.27637       -0.35119
H         -4.92867        1.30673       -1.68337
H         -5.75038        2.02582       -0.28652
H         -3.79905        1.47842        1.17754
H         -3.29675        2.46788       -0.17803
H         -2.49416        0.52705       -1.41686
H         -0.98447        1.79202        0.02556
H         -1.32530        0.73236        1.40339
H          1.07857       -0.05731        1.44618
H          1.16604        2.28402        0.94358
H          1.12520        1.99309       -0.79326
H          3.54074        2.17696        0.90050
H          3.44135        2.03294       -0.84406
H          4.72542        0.25849        1.98240
H          3.01522        0.00502        2.33751
H          4.00517       -1.34397        1.75224
H          5.60346        0.36892       -0.29337
H          5.00429       -1.27527       -0.59399
H          4.59805        0.02574       -1.71311
H          2.25926       -1.68429        0.07742
H          1.19782       -0.91516       -2.01034
H          2.33978        0.21499       -2.14403
H          0.12788       -2.20502       -0.35876
H         -0.62598       -1.72444        1.16826
H         -1.90068       -1.73226       -1.62783
H         -2.26341       -2.86468       -0.31692
H         -4.39755       -0.67253        1.49732
H         -3.72071       -2.29283        1.34121
H         -2.74603       -0.99604        2.06323
