1Nap_transform_new_1 0.0                                                
SP        RB3LYP                                                      6-31G(d)            
Number of atoms                            I               18
Info1-9                                    I   N=           9
          27          27           0           0           0         110
           1          18        -502
Full Title                                 C   N=           2
1Nap_transform_new_1 0.0
Route                                      C   N=           2
# nosymm b3lyp/6-31G*   
Charge                                     I                0
Multiplicity                               I                1
Number of electrons                        I               68
Number of alpha electrons                  I               34
Number of beta electrons                   I               34
Number of basis functions                  I              166
Number of independent functions            I              166
Number of point charges in /Mol/           I                0
Number of translation vectors              I                0
Atomic numbers                             I   N=          18
           1           6           6           1           6           1
           6           1           6           6           6           1
           6           1           6           1           6           1
Nuclear charges                            R   N=          18
  1.00000000E+00  6.00000000E+00  6.00000000E+00  1.00000000E+00  6.00000000E+00
  1.00000000E+00  6.00000000E+00  1.00000000E+00  6.00000000E+00  6.00000000E+00
  6.00000000E+00  1.00000000E+00  6.00000000E+00  1.00000000E+00  6.00000000E+00
  1.00000000E+00  6.00000000E+00  1.00000000E+00
Current cartesian coordinates              R   N=          54
  0.00000000E+00  0.00000000E+00  0.00000000E+00 -2.00310969E+00  0.00000000E+00
  0.00000000E+00 -3.30702072E+00  1.60626721E+00  1.60626721E+00 -2.30546587E+00
  2.81569193E+00  2.81569193E+00 -5.91484277E+00  1.58736994E+00  1.58736994E+00
 -6.91639762E+00  2.81569193E+00  2.81569193E+00 -7.21875380E+00  0.00000000E+00
  0.00000000E+00 -9.22186349E+00  0.00000000E+00  0.00000000E+00 -5.91484277E+00
 -1.60626721E+00 -1.60626721E+00 -3.30702072E+00 -1.60626721E+00 -1.60626721E+00
 -2.00310969E+00 -3.19363715E+00 -3.19363715E+00  0.00000000E+00 -3.19363715E+00
 -3.19363715E+00 -3.30702072E+00 -4.79990436E+00 -4.79990436E+00 -2.30546587E+00
 -6.00932908E+00 -6.00932908E+00 -5.91484277E+00 -4.79990436E+00 -4.79990436E+00
 -6.91639762E+00 -6.00932908E+00 -6.00932908E+00 -7.21875380E+00 -3.19363715E+00
 -3.19363715E+00 -9.22186349E+00 -3.19363715E+00 -3.19363715E+00
Number of symbols in /Mol/                 I                0
Force Field                                I                0
Atom Types                                 C   N=          18
                                                            
                                                            
                                                            
                                    
Int Atom Types                             I   N=          18
           0           0           0           0           0           0
           0           0           0           0           0           0
           0           0           0           0           0           0
MM charges                                 R   N=          18
  0.00000000E+00  0.00000000E+00  0.00000000E+00  0.00000000E+00  0.00000000E+00
  0.00000000E+00  0.00000000E+00  0.00000000E+00  0.00000000E+00  0.00000000E+00
  0.00000000E+00  0.00000000E+00  0.00000000E+00  0.00000000E+00  0.00000000E+00
  0.00000000E+00  0.00000000E+00  0.00000000E+00
Integer atomic weights                     I   N=          18
           1          12          12           1          12           1
          12           1          12          12          12           1
          12           1          12           1          12           1
Real atomic weights                        R   N=          18
  1.00782504E+00  1.20000000E+01  1.20000000E+01  1.00782504E+00  1.20000000E+01
  1.00782504E+00  1.20000000E+01  1.00782504E+00  1.20000000E+01  1.20000000E+01
  1.20000000E+01  1.00782504E+00  1.20000000E+01  1.00782504E+00  1.20000000E+01
  1.00782504E+00  1.20000000E+01  1.00782504E+00
Atom fragment info                         I   N=          18
           0           0           0           0           0           0
           0           0           0           0           0           0
           0           0           0           0           0           0
Atom residue num                           I   N=          18
           0           0           0           0           0           0
           0           0           0           0           0           0
           0           0           0           0           0           0
Nuclear spins                              I   N=          18
           1           0           0           1           0           1
           0           1           0           0           0           1
           0           1           0           1           0           1
Nuclear ZEff                               R   N=          18
 -1.00000000E+00 -3.60000000E+00 -3.60000000E+00 -1.00000000E+00 -3.60000000E+00
 -1.00000000E+00 -3.60000000E+00 -1.00000000E+00 -3.60000000E+00 -3.60000000E+00
 -3.60000000E+00 -1.00000000E+00 -3.60000000E+00 -1.00000000E+00 -3.60000000E+00
 -1.00000000E+00 -3.60000000E+00 -1.00000000E+00
Nuclear ZNuc                               R   N=          18
  1.00000000E+00  6.00000000E+00  6.00000000E+00  1.00000000E+00  6.00000000E+00
  1.00000000E+00  6.00000000E+00  1.00000000E+00  6.00000000E+00  6.00000000E+00
  6.00000000E+00  1.00000000E+00  6.00000000E+00  1.00000000E+00  6.00000000E+00
  1.00000000E+00  6.00000000E+00  1.00000000E+00
Nuclear QMom                               R   N=          18
  0.00000000E+00  0.00000000E+00  0.00000000E+00  0.00000000E+00  0.00000000E+00
  0.00000000E+00  0.00000000E+00  0.00000000E+00  0.00000000E+00  0.00000000E+00
  0.00000000E+00  0.00000000E+00  0.00000000E+00  0.00000000E+00  0.00000000E+00
  0.00000000E+00  0.00000000E+00  0.00000000E+00
Nuclear GFac                               R   N=          18
  2.79284600E+00  0.00000000E+00  0.00000000E+00  2.79284600E+00  0.00000000E+00
  2.79284600E+00  0.00000000E+00  2.79284600E+00  0.00000000E+00  0.00000000E+00
  0.00000000E+00  2.79284600E+00  0.00000000E+00  2.79284600E+00  0.00000000E+00
  2.79284600E+00  0.00000000E+00  2.79284600E+00
MicOpt                                     I   N=          18
          -1          -1          -1          -1          -1          -1
          -1          -1          -1          -1          -1          -1
          -1          -1          -1          -1          -1          -1
Number of residues                         I                0
Number of secondary structures             I                0
Number of contracted shells                I               56
Number of primitive shells                 I              142
Pure/Cartesian d shells                    I                1
Pure/Cartesian f shells                    I                0
Highest angular momentum                   I                2
Largest degree of contraction              I                6
Shell types                                I   N=          56
           0           0           0          -1          -1           2
           0          -1          -1           2           0           0
           0          -1          -1           2           0           0
           0          -1          -1           2           0           0
           0          -1          -1           2           0          -1
          -1           2           0          -1          -1           2
           0           0           0          -1          -1           2
           0           0           0          -1          -1           2
           0           0           0          -1          -1           2
           0           0
Number of primitives per shell             I   N=          56
           3           1           6           3           1           1
           6           3           1           1           3           1
           6           3           1           1           3           1
           6           3           1           1           3           1
           6           3           1           1           6           3
           1           1           6           3           1           1
           3           1           6           3           1           1
           3           1           6           3           1           1
           3           1           6           3           1           1
           3           1
Shell to atom map                          I   N=          56
           1           1           2           2           2           2
           3           3           3           3           4           4
           5           5           5           5           6           6
           7           7           7           7           8           8
           9           9           9           9          10          10
          10          10          11          11          11          11
          12          12          13          13          13          13
          14          14          15          15          15          15
          16          16          17          17          17          17
          18          18
Primitive exponents                        R   N=         142
  1.87311370E+01  2.82539436E+00  6.40121692E-01  1.61277759E-01  3.04752488E+03
  4.57369518E+02  1.03948685E+02  2.92101553E+01  9.28666296E+00  3.16392696E+00
  7.86827235E+00  1.88128854E+00  5.44249258E-01  1.68714478E-01  8.00000000E-01
  3.04752488E+03  4.57369518E+02  1.03948685E+02  2.92101553E+01  9.28666296E+00
  3.16392696E+00  7.86827235E+00  1.88128854E+00  5.44249258E-01  1.68714478E-01
  8.00000000E-01  1.87311370E+01  2.82539436E+00  6.40121692E-01  1.61277759E-01
  3.04752488E+03  4.57369518E+02  1.03948685E+02  2.92101553E+01  9.28666296E+00
  3.16392696E+00  7.86827235E+00  1.88128854E+00  5.44249258E-01  1.68714478E-01
  8.00000000E-01  1.87311370E+01  2.82539436E+00  6.40121692E-01  1.61277759E-01
  3.04752488E+03  4.57369518E+02  1.03948685E+02  2.92101553E+01  9.28666296E+00
  3.16392696E+00  7.86827235E+00  1.88128854E+00  5.44249258E-01  1.68714478E-01
  8.00000000E-01  1.87311370E+01  2.82539436E+00  6.40121692E-01  1.61277759E-01
  3.04752488E+03  4.57369518E+02  1.03948685E+02  2.92101553E+01  9.28666296E+00
  3.16392696E+00  7.86827235E+00  1.88128854E+00  5.44249258E-01  1.68714478E-01
  8.00000000E-01  3.04752488E+03  4.57369518E+02  1.03948685E+02  2.92101553E+01
  9.28666296E+00  3.16392696E+00  7.86827235E+00  1.88128854E+00  5.44249258E-01
  1.68714478E-01  8.00000000E-01  3.04752488E+03  4.57369518E+02  1.03948685E+02
  2.92101553E+01  9.28666296E+00  3.16392696E+00  7.86827235E+00  1.88128854E+00
  5.44249258E-01  1.68714478E-01  8.00000000E-01  1.87311370E+01  2.82539436E+00
  6.40121692E-01  1.61277759E-01  3.04752488E+03  4.57369518E+02  1.03948685E+02
  2.92101553E+01  9.28666296E+00  3.16392696E+00  7.86827235E+00  1.88128854E+00
  5.44249258E-01  1.68714478E-01  8.00000000E-01  1.87311370E+01  2.82539436E+00
  6.40121692E-01  1.61277759E-01  3.04752488E+03  4.57369518E+02  1.03948685E+02
  2.92101553E+01  9.28666296E+00  3.16392696E+00  7.86827235E+00  1.88128854E+00
  5.44249258E-01  1.68714478E-01  8.00000000E-01  1.87311370E+01  2.82539436E+00
  6.40121692E-01  1.61277759E-01  3.04752488E+03  4.57369518E+02  1.03948685E+02
  2.92101553E+01  9.28666296E+00  3.16392696E+00  7.86827235E+00  1.88128854E+00
  5.44249258E-01  1.68714478E-01  8.00000000E-01  1.87311370E+01  2.82539436E+00
  6.40121692E-01  1.61277759E-01
Contraction coefficients                   R   N=         142
  3.34946043E-02  2.34726953E-01  8.13757326E-01  1.00000000E+00  1.83473713E-03
  1.40373228E-02  6.88426223E-02  2.32184443E-01  4.67941348E-01  3.62311985E-01
 -1.19332420E-01 -1.60854152E-01  1.14345644E+00  1.00000000E+00  1.00000000E+00
  1.83473713E-03  1.40373228E-02  6.88426223E-02  2.32184443E-01  4.67941348E-01
  3.62311985E-01 -1.19332420E-01 -1.60854152E-01  1.14345644E+00  1.00000000E+00
  1.00000000E+00  3.34946043E-02  2.34726953E-01  8.13757326E-01  1.00000000E+00
  1.83473713E-03  1.40373228E-02  6.88426223E-02  2.32184443E-01  4.67941348E-01
  3.62311985E-01 -1.19332420E-01 -1.60854152E-01  1.14345644E+00  1.00000000E+00
  1.00000000E+00  3.34946043E-02  2.34726953E-01  8.13757326E-01  1.00000000E+00
  1.83473713E-03  1.40373228E-02  6.88426223E-02  2.32184443E-01  4.67941348E-01
  3.62311985E-01 -1.19332420E-01 -1.60854152E-01  1.14345644E+00  1.00000000E+00
  1.00000000E+00  3.34946043E-02  2.34726953E-01  8.13757326E-01  1.00000000E+00
  1.83473713E-03  1.40373228E-02  6.88426223E-02  2.32184443E-01  4.67941348E-01
  3.62311985E-01 -1.19332420E-01 -1.60854152E-01  1.14345644E+00  1.00000000E+00
  1.00000000E+00  1.83473713E-03  1.40373228E-02  6.88426223E-02  2.32184443E-01
  4.67941348E-01  3.62311985E-01 -1.19332420E-01 -1.60854152E-01  1.14345644E+00
  1.00000000E+00  1.00000000E+00  1.83473713E-03  1.40373228E-02  6.88426223E-02
  2.32184443E-01  4.67941348E-01  3.62311985E-01 -1.19332420E-01 -1.60854152E-01
  1.14345644E+00  1.00000000E+00  1.00000000E+00  3.34946043E-02  2.34726953E-01
  8.13757326E-01  1.00000000E+00  1.83473713E-03  1.40373228E-02  6.88426223E-02
  2.32184443E-01  4.67941348E-01  3.62311985E-01 -1.19332420E-01 -1.60854152E-01
  1.14345644E+00  1.00000000E+00  1.00000000E+00  3.34946043E-02  2.34726953E-01
  8.13757326E-01  1.00000000E+00  1.83473713E-03  1.40373228E-02  6.88426223E-02
  2.32184443E-01  4.67941348E-01  3.62311985E-01 -1.19332420E-01 -1.60854152E-01
  1.14345644E+00  1.00000000E+00  1.00000000E+00  3.34946043E-02  2.34726953E-01
  8.13757326E-01  1.00000000E+00  1.83473713E-03  1.40373228E-02  6.88426223E-02
  2.32184443E-01  4.67941348E-01  3.62311985E-01 -1.19332420E-01 -1.60854152E-01
  1.14345644E+00  1.00000000E+00  1.00000000E+00  3.34946043E-02  2.34726953E-01
  8.13757326E-01  1.00000000E+00
P(S=P) Contraction coefficients            R   N=         142
  0.00000000E+00  0.00000000E+00  0.00000000E+00  0.00000000E+00  0.00000000E+00
  0.00000000E+00  0.00000000E+00  0.00000000E+00  0.00000000E+00  0.00000000E+00
  6.89990666E-02  3.16423961E-01  7.44308291E-01  1.00000000E+00  0.00000000E+00
  0.00000000E+00  0.00000000E+00  0.00000000E+00  0.00000000E+00  0.00000000E+00
  0.00000000E+00  6.89990666E-02  3.16423961E-01  7.44308291E-01  1.00000000E+00
  0.00000000E+00  0.00000000E+00  0.00000000E+00  0.00000000E+00  0.00000000E+00
  0.00000000E+00  0.00000000E+00  0.00000000E+00  0.00000000E+00  0.00000000E+00
  0.00000000E+00  6.89990666E-02  3.16423961E-01  7.44308291E-01  1.00000000E+00
  0.00000000E+00  0.00000000E+00  0.00000000E+00  0.00000000E+00  0.00000000E+00
  0.00000000E+00  0.00000000E+00  0.00000000E+00  0.00000000E+00  0.00000000E+00
  0.00000000E+00  6.89990666E-02  3.16423961E-01  7.44308291E-01  1.00000000E+00
  0.00000000E+00  0.00000000E+00  0.00000000E+00  0.00000000E+00  0.00000000E+00
  0.00000000E+00  0.00000000E+00  0.00000000E+00  0.00000000E+00  0.00000000E+00
  0.00000000E+00  6.89990666E-02  3.16423961E-01  7.44308291E-01  1.00000000E+00
  0.00000000E+00  0.00000000E+00  0.00000000E+00  0.00000000E+00  0.00000000E+00
  0.00000000E+00  0.00000000E+00  6.89990666E-02  3.16423961E-01  7.44308291E-01
  1.00000000E+00  0.00000000E+00  0.00000000E+00  0.00000000E+00  0.00000000E+00
  0.00000000E+00  0.00000000E+00  0.00000000E+00  6.89990666E-02  3.16423961E-01
  7.44308291E-01  1.00000000E+00  0.00000000E+00  0.00000000E+00  0.00000000E+00
  0.00000000E+00  0.00000000E+00  0.00000000E+00  0.00000000E+00  0.00000000E+00
  0.00000000E+00  0.00000000E+00  0.00000000E+00  6.89990666E-02  3.16423961E-01
  7.44308291E-01  1.00000000E+00  0.00000000E+00  0.00000000E+00  0.00000000E+00
  0.00000000E+00  0.00000000E+00  0.00000000E+00  0.00000000E+00  0.00000000E+00
  0.00000000E+00  0.00000000E+00  0.00000000E+00  6.89990666E-02  3.16423961E-01
  7.44308291E-01  1.00000000E+00  0.00000000E+00  0.00000000E+00  0.00000000E+00
  0.00000000E+00  0.00000000E+00  0.00000000E+00  0.00000000E+00  0.00000000E+00
  0.00000000E+00  0.00000000E+00  0.00000000E+00  6.89990666E-02  3.16423961E-01
  7.44308291E-01  1.00000000E+00  0.00000000E+00  0.00000000E+00  0.00000000E+00
  0.00000000E+00  0.00000000E+00
Coordinates of each shell                  R   N=         168
  0.00000000E+00  0.00000000E+00  0.00000000E+00  0.00000000E+00  0.00000000E+00
  0.00000000E+00 -2.00310969E+00  0.00000000E+00  0.00000000E+00 -2.00310969E+00
  0.00000000E+00  0.00000000E+00 -2.00310969E+00  0.00000000E+00  0.00000000E+00
 -2.00310969E+00  0.00000000E+00  0.00000000E+00 -3.30702072E+00  1.60626721E+00
  1.60626721E+00 -3.30702072E+00  1.60626721E+00  1.60626721E+00 -3.30702072E+00
  1.60626721E+00  1.60626721E+00 -3.30702072E+00  1.60626721E+00  1.60626721E+00
 -2.30546587E+00  2.81569193E+00  2.81569193E+00 -2.30546587E+00  2.81569193E+00
  2.81569193E+00 -5.91484277E+00  1.58736994E+00  1.58736994E+00 -5.91484277E+00
  1.58736994E+00  1.58736994E+00 -5.91484277E+00  1.58736994E+00  1.58736994E+00
 -5.91484277E+00  1.58736994E+00  1.58736994E+00 -6.91639762E+00  2.81569193E+00
  2.81569193E+00 -6.91639762E+00  2.81569193E+00  2.81569193E+00 -7.21875380E+00
  0.00000000E+00  0.00000000E+00 -7.21875380E+00  0.00000000E+00  0.00000000E+00
 -7.21875380E+00  0.00000000E+00  0.00000000E+00 -7.21875380E+00  0.00000000E+00
  0.00000000E+00 -9.22186349E+00  0.00000000E+00  0.00000000E+00 -9.22186349E+00
  0.00000000E+00  0.00000000E+00 -5.91484277E+00 -1.60626721E+00 -1.60626721E+00
 -5.91484277E+00 -1.60626721E+00 -1.60626721E+00 -5.91484277E+00 -1.60626721E+00
 -1.60626721E+00 -5.91484277E+00 -1.60626721E+00 -1.60626721E+00 -3.30702072E+00
 -1.60626721E+00 -1.60626721E+00 -3.30702072E+00 -1.60626721E+00 -1.60626721E+00
 -3.30702072E+00 -1.60626721E+00 -1.60626721E+00 -3.30702072E+00 -1.60626721E+00
 -1.60626721E+00 -2.00310969E+00 -3.19363715E+00 -3.19363715E+00 -2.00310969E+00
 -3.19363715E+00 -3.19363715E+00 -2.00310969E+00 -3.19363715E+00 -3.19363715E+00
 -2.00310969E+00 -3.19363715E+00 -3.19363715E+00  0.00000000E+00 -3.19363715E+00
 -3.19363715E+00  0.00000000E+00 -3.19363715E+00 -3.19363715E+00 -3.30702072E+00
 -4.79990436E+00 -4.79990436E+00 -3.30702072E+00 -4.79990436E+00 -4.79990436E+00
 -3.30702072E+00 -4.79990436E+00 -4.79990436E+00 -3.30702072E+00 -4.79990436E+00
 -4.79990436E+00 -2.30546587E+00 -6.00932908E+00 -6.00932908E+00 -2.30546587E+00
 -6.00932908E+00 -6.00932908E+00 -5.91484277E+00 -4.79990436E+00 -4.79990436E+00
 -5.91484277E+00 -4.79990436E+00 -4.79990436E+00 -5.91484277E+00 -4.79990436E+00
 -4.79990436E+00 -5.91484277E+00 -4.79990436E+00 -4.79990436E+00 -6.91639762E+00
 -6.00932908E+00 -6.00932908E+00 -6.91639762E+00 -6.00932908E+00 -6.00932908E+00
 -7.21875380E+00 -3.19363715E+00 -3.19363715E+00 -7.21875380E+00 -3.19363715E+00
 -3.19363715E+00 -7.21875380E+00 -3.19363715E+00 -3.19363715E+00 -7.21875380E+00
 -3.19363715E+00 -3.19363715E+00 -9.22186349E+00 -3.19363715E+00 -3.19363715E+00
 -9.22186349E+00 -3.19363715E+00 -3.19363715E+00
Num ILSW                                   I              100
ILSW                                       I   N=         100
           0           1           0           0           2           0
           0           0           0           0         402          -1
           5           0           0           0           0           0
           0           0           1           0           0           0
           1           1           0           0           0           0
           0           0      100000           0          -1           0
           0           0           0           0           0           0
           0           0           0           1           0           0
           0 -2000000000           1           0           0           0
           0           0           4          52           0           0
           0           0           5           0           0           0
           0           0           0           0           0           1
           0           0           0           0           0           0
           0           0           0           0           0           0
           0           0           0           0           0           0
           0           0           0           0           0           0
           0           0           0           0
Num RLSW                                   I               52
RLSW                                       R   N=          52
  8.00000000E-01  7.20000000E-01  1.00000000E+00  8.10000000E-01  2.00000000E-01
  0.00000000E+00  0.00000000E+00  1.00000000E+00  0.00000000E+00  0.00000000E+00
  0.00000000E+00  0.00000000E+00  1.00000000E+00  0.00000000E+00  0.00000000E+00
  0.00000000E+00  0.00000000E+00  1.00000000E+00  0.00000000E+00  0.00000000E+00
  0.00000000E+00  0.00000000E+00  1.00000000E+00  0.00000000E+00  0.00000000E+00
  0.00000000E+00  0.00000000E+00  1.00000000E+00  0.00000000E+00  0.00000000E+00
  0.00000000E+00  0.00000000E+00  1.00000000E+00  0.00000000E+00  0.00000000E+00
  0.00000000E+00  0.00000000E+00  0.00000000E+00  1.00000000E+00  1.00000000E+00
  0.00000000E+00  1.00000000E+00  0.00000000E+00  0.00000000E+00  0.00000000E+00
  0.00000000E+00  0.00000000E+00  0.00000000E+00  0.00000000E+00  0.00000000E+00
  0.00000000E+00  0.00000000E+00
MxBond                                     I                3
NBond                                      I   N=          18
           1           3           3           1           3           1
           3           1           3           3           3           1
           3           1           3           1           3           1
IBond                                      I   N=          54
           2           0           0           1           3          10
           2           4           5           3           0           0
           3           6           7           5           0           0
           5           8           9           7           0           0
           7          10          17           2           9          11
          10          12          13          11           0           0
          11          14          15          13           0           0
          13          16          17          15           0           0
           9          15          18          17           0           0
RBond                                      R   N=          54
  1.00000000E+00  0.00000000E+00  0.00000000E+00  1.00000000E+00  1.50000000E+00
  1.50000000E+00  1.50000000E+00  1.00000000E+00  1.50000000E+00  1.00000000E+00
  0.00000000E+00  0.00000000E+00  1.50000000E+00  1.00000000E+00  1.50000000E+00
  1.00000000E+00  0.00000000E+00  0.00000000E+00  1.50000000E+00  1.00000000E+00
  1.50000000E+00  1.00000000E+00  0.00000000E+00  0.00000000E+00  1.50000000E+00
  1.50000000E+00  1.50000000E+00  1.50000000E+00  1.50000000E+00  1.50000000E+00
  1.50000000E+00  1.00000000E+00  1.50000000E+00  1.00000000E+00  0.00000000E+00
  0.00000000E+00  1.50000000E+00  1.00000000E+00  1.50000000E+00  1.00000000E+00
  0.00000000E+00  0.00000000E+00  1.50000000E+00  1.00000000E+00  1.50000000E+00
  1.00000000E+00  0.00000000E+00  0.00000000E+00  1.50000000E+00  1.50000000E+00
  1.00000000E+00  1.00000000E+00  0.00000000E+00  0.00000000E+00
Virial Ratio                               R      2.007127740959974E+00
SCF Energy                                 R     -3.858756731357613E+02
Total Energy                               R     -3.858756731357613E+02
RMS Density                                R      2.979414535221561E-09
Job Status                                 I                1
Nuclear derivative order                   I                0
External E-field                           R   N=          35
  0.00000000E+00  0.00000000E+00  0.00000000E+00  0.00000000E+00  0.00000000E+00
  0.00000000E+00  0.00000000E+00  0.00000000E+00  0.00000000E+00  0.00000000E+00
  0.00000000E+00  0.00000000E+00  0.00000000E+00  0.00000000E+00  0.00000000E+00
  0.00000000E+00  0.00000000E+00  0.00000000E+00  0.00000000E+00  0.00000000E+00
  0.00000000E+00  0.00000000E+00  0.00000000E+00  0.00000000E+00  0.00000000E+00
  0.00000000E+00  0.00000000E+00  0.00000000E+00  0.00000000E+00  0.00000000E+00
  0.00000000E+00  0.00000000E+00  0.00000000E+00  0.00000000E+00  0.00000000E+00
IOpCl                                      I                0
IROHF                                      I                0
Alpha Orbital Energies                     R   N=         166
 -1.01805031E+01 -1.01799848E+01 -1.01797912E+01 -1.01797085E+01 -1.01793823E+01
 -1.01791450E+01 -1.01790101E+01 -1.01784934E+01 -1.01783707E+01 -1.01782117E+01
 -8.84485959E-01 -8.22760459E-01 -7.78871673E-01 -7.46415024E-01 -7.13243590E-01
 -6.30900578E-01 -6.10665771E-01 -6.05052441E-01 -5.19533403E-01 -5.10771893E-01
 -4.94348236E-01 -4.52713724E-01 -4.46002112E-01 -4.17649272E-01 -4.11295773E-01
 -3.96935460E-01 -3.96444753E-01 -3.72111101E-01 -3.36253509E-01 -3.29937029E-01
 -3.24784993E-01 -2.84548232E-01 -2.45329939E-01 -2.06248320E-01 -3.53856625E-02
  4.63347963E-03  3.89100168E-02  1.05234790E-01  1.10311672E-01  1.24131936E-01
  1.28677598E-01  1.73146294E-01  1.77580337E-01  1.85190007E-01  1.94640527E-01
  2.20657781E-01  2.20937245E-01  2.68507617E-01  2.91515879E-01  3.28985721E-01
  3.30933168E-01  3.33106482E-01  3.33655915E-01  3.79873006E-01  4.93389750E-01
  5.12426974E-01  5.24951829E-01  5.34990595E-01  5.41962106E-01  5.44983081E-01
  5.49997604E-01  5.60505281E-01  5.69307292E-01  6.00840821E-01  6.09251866E-01
  6.15331475E-01  6.18724334E-01  6.23041515E-01  6.24587539E-01  6.30446820E-01
  6.30819241E-01  6.34322083E-01  6.50637660E-01  6.78268615E-01  6.93179696E-01
  6.94384564E-01  7.65381051E-01  8.38879601E-01  8.44366871E-01  8.44509341E-01
  8.59360081E-01  8.64673125E-01  8.73748227E-01  8.78188794E-01  9.17948835E-01
  9.21294471E-01  9.41304668E-01  9.55829224E-01  9.64778497E-01  9.97801126E-01
  1.01296301E+00  1.06064121E+00  1.06097376E+00  1.08381409E+00  1.11693936E+00
  1.17536934E+00  1.21611032E+00  1.23026706E+00  1.23796030E+00  1.26037381E+00
  1.29995603E+00  1.31901829E+00  1.40441549E+00  1.40588604E+00  1.45690158E+00
  1.46936949E+00  1.48825753E+00  1.49000445E+00  1.49538805E+00  1.50518993E+00
  1.51351599E+00  1.51657051E+00  1.56897529E+00  1.72867420E+00  1.81699287E+00
  1.82707743E+00  1.88358970E+00  1.93291390E+00  1.94016951E+00  1.94308784E+00
  1.96663135E+00  1.99490203E+00  2.00263212E+00  2.00674826E+00  2.01502173E+00
  2.06971167E+00  2.09896191E+00  2.16333426E+00  2.17428088E+00  2.18842091E+00
  2.20372085E+00  2.22255193E+00  2.22889554E+00  2.29307353E+00  2.32444074E+00
  2.34297459E+00  2.34481213E+00  2.34984284E+00  2.41587506E+00  2.46018579E+00
  2.59942729E+00  2.64885215E+00  2.65919717E+00  2.66190355E+00  2.69295354E+00
  2.72402599E+00  2.73852199E+00  2.80384139E+00  2.81059755E+00  2.87032966E+00
  2.89319442E+00  2.96246155E+00  2.97145878E+00  3.11008596E+00  3.47371174E+00
  3.57913949E+00  4.11142831E+00  4.12145788E+00  4.13613338E+00  4.14094277E+00
  4.14523991E+00  4.27114419E+00  4.36272611E+00  4.42089638E+00  4.52892913E+00
  4.86270708E+00
Alpha MO coefficients                      R   N=       27556
 -1.44150607E-04  3.78457603E-04  2.48284914E-01  1.20998595E-02  1.34556017E-04
  1.11314469E-04  1.11314469E-04 -3.97272747E-04 -2.18667690E-04 -7.18253930E-04
 -7.18253930E-04 -2.52574883E-03 -2.56909935E-03 -2.56909935E-03 -3.27773443E-05
 -3.27773443E-05 -3.09182778E-05  7.82893387E-02  3.71265688E-03 -2.83255287E-05
  6.63675393E-05  6.63675393E-05  1.30589631E-04  1.34334547E-04 -3.17813518E-04
 -3.17813518E-04 -7.95834342E-04 -7.91443030E-04 -7.91443030E-04  1.46556815E-05
  1.46556815E-05  4.57680411E-05 -4.59845118E-05  2.94646049E-04  3.92082373E-02
  1.80141648E-03 -1.80147593E-05  3.37379772E-05  3.37379772E-05 -1.31627020E-04
 -1.13535274E-05 -3.31158929E-05 -3.31158929E-05 -3.85629079E-04 -3.90314081E-04
 -3.90314081E-04 -4.89742479E-06 -4.89742479E-06  5.00187293E-05 -2.92798035E-05
  1.67298965E-04  8.70782938E-02  4.02810312E-03 -1.31928383E-04  1.00196694E-04
  1.00196694E-04  1.65817520E-03  5.72296983E-04 -6.58406394E-04 -6.58406394E-04
 -9.43344824E-04 -9.84103438E-04 -9.84103438E-04  2.16875302E-05  2.16875302E-05
 -3.33365896E-05 -6.51833682E-05  1.87017818E-04  5.89577488E-01  2.95729805E-02
 -1.90882646E-04 -5.00202907E-06 -5.00202907E-06 -6.22570406E-03  1.29047988E-03
 -1.24309626E-04 -1.24309626E-04 -5.87688903E-03 -5.85107329E-03 -5.85107329E-03
  4.81891355E-06  4.81891355E-06  9.89526749E-05  7.27796474E-01  3.65910820E-02
  9.15181871E-05 -3.72548665E-05 -3.72548665E-05 -8.30137342E-03 -8.41183185E-04
  3.70100642E-04  3.70100642E-04 -7.18398911E-03 -7.19314149E-03 -7.19314149E-03
 -1.42113180E-05 -1.42113180E-05  1.25655619E-04  1.33180382E-01  6.28373953E-03
  1.46112822E-04 -1.28377057E-04 -1.28377057E-04  1.74939612E-03 -6.68719388E-04
  8.51461956E-04  8.51461956E-04 -1.42823541E-03 -1.45817933E-03 -1.45817933E-03
  2.41767831E-05  2.41767831E-05 -3.99191900E-05 -9.29112872E-05  2.32639772E-04
  3.98254781E-02  1.83861781E-03 -1.09149804E-05 -4.13400020E-05 -4.13400020E-05
 -1.32490301E-04  1.64609579E-04  9.57746636E-05  9.57746636E-05 -4.00244443E-04
 -3.88627050E-04 -3.88627050E-04 -6.68151711E-06 -6.68151711E-06  5.26825357E-05
 -3.31438763E-05  1.69829918E-04  3.46361573E-02  1.57691351E-03 -2.68648444E-08