35diMePh_transform_new_1 0.0                                            
SP        RB3LYP                                                      6-31G(d)            
Number of atoms                            I               18
Info1-9                                    I   N=           9
          27          27           0           0           0         110
           1          18        -502
Full Title                                 C   N=           3
35diMePh_transform_new_1 0.0        
Route                                      C   N=           2
# nosymm b3lyp/6-31G*   
Charge                                     I                0
Multiplicity                               I                1
Number of electrons                        I               58
Number of alpha electrons                  I               29
Number of beta electrons                   I               29
Number of basis functions                  I              140
Number of independent functions            I              140
Number of point charges in /Mol/           I                0
Number of translation vectors              I                0
Atomic numbers                             I   N=          18
           1           6           6           1           6           6
           1           1           1           6           1           6
           6           1           1           1           6           1
Nuclear charges                            R   N=          18
  1.00000000E+00  6.00000000E+00  6.00000000E+00  1.00000000E+00  6.00000000E+00
  6.00000000E+00  1.00000000E+00  1.00000000E+00  1.00000000E+00  6.00000000E+00
  1.00000000E+00  6.00000000E+00  6.00000000E+00  1.00000000E+00  1.00000000E+00
  1.00000000E+00  6.00000000E+00  1.00000000E+00
Current cartesian coordinates              R   N=          54
  0.00000000E+00  0.00000000E+00  0.00000000E+00  0.00000000E+00  0.00000000E+00
  2.00310984E+00 -2.27158745E+00 -2.15428778E-06  3.30702563E+00 -3.98197862E+00
  7.42662367E-06  2.30547243E+00 -2.24485638E+00  1.21131445E-05  5.91485494E+00
 -4.70353777E+00  3.19363715E-06  7.33216155E+00 -5.30484400E+00 -1.96425518E+00
  7.67231292E+00 -4.46300128E+00  9.88826293E-01  9.14628075E+00 -6.16003317E+00
  9.75458390E-01  6.21721397E+00  2.06736038E-05  9.61870597E-06  7.21875432E+00
  3.95708650E-05  9.61870597E-06  9.22186417E+00  2.27162702E+00  1.17729938E-05
  5.91481964E+00  4.70359480E+00  2.51333575E-06  7.33211423E+00  5.30489143E+00
 -1.96425596E+00  7.67226199E+00  6.16007453E+00  9.75457483E-01  6.21716133E+00
  4.46308260E+00  9.88825632E-01  9.14623863E+00  2.27161668E+00 -2.49443848E-06
  3.30699740E+00  3.98198896E+00  6.84080857E-06  2.30544074E+00
Number of symbols in /Mol/                 I                0
Force Field                                I                0
Atom Types                                 C   N=          18
                                                            
                                                            
                                                            
                                    
Int Atom Types                             I   N=          18
           0           0           0           0           0           0
           0           0           0           0           0           0
           0           0           0           0           0           0
MM charges                                 R   N=          18
  0.00000000E+00  0.00000000E+00  0.00000000E+00  0.00000000E+00  0.00000000E+00
  0.00000000E+00  0.00000000E+00  0.00000000E+00  0.00000000E+00  0.00000000E+00
  0.00000000E+00  0.00000000E+00  0.00000000E+00  0.00000000E+00  0.00000000E+00
  0.00000000E+00  0.00000000E+00  0.00000000E+00
Integer atomic weights                     I   N=          18
           1          12          12           1          12          12
           1           1           1          12           1          12
          12           1           1           1          12           1
Real atomic weights                        R   N=          18
  1.00782504E+00  1.20000000E+01  1.20000000E+01  1.00782504E+00  1.20000000E+01
  1.20000000E+01  1.00782504E+00  1.00782504E+00  1.00782504E+00  1.20000000E+01
  1.00782504E+00  1.20000000E+01  1.20000000E+01  1.00782504E+00  1.00782504E+00
  1.00782504E+00  1.20000000E+01  1.00782504E+00
Atom fragment info                         I   N=          18
           0           0           0           0           0           0
           0           0           0           0           0           0
           0           0           0           0           0           0
Atom residue num                           I   N=          18
           0           0           0           0           0           0
           0           0           0           0           0           0
           0           0           0           0           0           0
Nuclear spins                              I   N=          18
           1           0           0           1           0           0
           1           1           1           0           1           0
           0           1           1           1           0           1
Nuclear ZEff                               R   N=          18
 -1.00000000E+00 -3.60000000E+00 -3.60000000E+00 -1.00000000E+00 -3.60000000E+00
 -3.60000000E+00 -1.00000000E+00 -1.00000000E+00 -1.00000000E+00 -3.60000000E+00
 -1.00000000E+00 -3.60000000E+00 -3.60000000E+00 -1.00000000E+00 -1.00000000E+00
 -1.00000000E+00 -3.60000000E+00 -1.00000000E+00
Nuclear ZNuc                               R   N=          18
  1.00000000E+00  6.00000000E+00  6.00000000E+00  1.00000000E+00  6.00000000E+00
  6.00000000E+00  1.00000000E+00  1.00000000E+00  1.00000000E+00  6.00000000E+00
  1.00000000E+00  6.00000000E+00  6.00000000E+00  1.00000000E+00  1.00000000E+00
  1.00000000E+00  6.00000000E+00  1.00000000E+00
Nuclear QMom                               R   N=          18
  0.00000000E+00  0.00000000E+00  0.00000000E+00  0.00000000E+00  0.00000000E+00
  0.00000000E+00  0.00000000E+00  0.00000000E+00  0.00000000E+00  0.00000000E+00
  0.00000000E+00  0.00000000E+00  0.00000000E+00  0.00000000E+00  0.00000000E+00
  0.00000000E+00  0.00000000E+00  0.00000000E+00
Nuclear GFac                               R   N=          18
  2.79284600E+00  0.00000000E+00  0.00000000E+00  2.79284600E+00  0.00000000E+00
  0.00000000E+00  2.79284600E+00  2.79284600E+00  2.79284600E+00  0.00000000E+00
  2.79284600E+00  0.00000000E+00  0.00000000E+00  2.79284600E+00  2.79284600E+00
  2.79284600E+00  0.00000000E+00  2.79284600E+00
MicOpt                                     I   N=          18
          -1          -1          -1          -1          -1          -1
          -1          -1          -1          -1          -1          -1
          -1          -1          -1          -1          -1          -1
Number of residues                         I                0
Number of secondary structures             I                0
Number of contracted shells                I               52
Number of primitive shells                 I              128
Pure/Cartesian d shells                    I                1
Pure/Cartesian f shells                    I                0
Highest angular momentum                   I                2
Largest degree of contraction              I                6
Shell types                                I   N=          52
           0           0           0          -1          -1           2
           0          -1          -1           2           0           0
           0          -1          -1           2           0          -1
          -1           2           0           0           0           0
           0           0           0          -1          -1           2
           0           0           0          -1          -1           2
           0          -1          -1           2           0           0
           0           0           0           0           0          -1
          -1           2           0           0
Number of primitives per shell             I   N=          52
           3           1           6           3           1           1
           6           3           1           1           3           1
           6           3           1           1           6           3
           1           1           3           1           3           1
           3           1           6           3           1           1
           3           1           6           3           1           1
           6           3           1           1           3           1
           3           1           3           1           6           3
           1           1           3           1
Shell to atom map                          I   N=          52
           1           1           2           2           2           2
           3           3           3           3           4           4
           5           5           5           5           6           6
           6           6           7           7           8           8
           9           9          10          10          10          10
          11          11          12          12          12          12
          13          13          13          13          14          14
          15          15          16          16          17          17
          17          17          18          18
Primitive exponents                        R   N=         128
  1.87311370E+01  2.82539436E+00  6.40121692E-01  1.61277759E-01  3.04752488E+03
  4.57369518E+02  1.03948685E+02  2.92101553E+01  9.28666296E+00  3.16392696E+00
  7.86827235E+00  1.88128854E+00  5.44249258E-01  1.68714478E-01  8.00000000E-01
  3.04752488E+03  4.57369518E+02  1.03948685E+02  2.92101553E+01  9.28666296E+00
  3.16392696E+00  7.86827235E+00  1.88128854E+00  5.44249258E-01  1.68714478E-01
  8.00000000E-01  1.87311370E+01  2.82539436E+00  6.40121692E-01  1.61277759E-01
  3.04752488E+03  4.57369518E+02  1.03948685E+02  2.92101553E+01  9.28666296E+00
  3.16392696E+00  7.86827235E+00  1.88128854E+00  5.44249258E-01  1.68714478E-01
  8.00000000E-01  3.04752488E+03  4.57369518E+02  1.03948685E+02  2.92101553E+01
  9.28666296E+00  3.16392696E+00  7.86827235E+00  1.88128854E+00  5.44249258E-01
  1.68714478E-01  8.00000000E-01  1.87311370E+01  2.82539436E+00  6.40121692E-01
  1.61277759E-01  1.87311370E+01  2.82539436E+00  6.40121692E-01  1.61277759E-01
  1.87311370E+01  2.82539436E+00  6.40121692E-01  1.61277759E-01  3.04752488E+03
  4.57369518E+02  1.03948685E+02  2.92101553E+01  9.28666296E+00  3.16392696E+00
  7.86827235E+00  1.88128854E+00  5.44249258E-01  1.68714478E-01  8.00000000E-01
  1.87311370E+01  2.82539436E+00  6.40121692E-01  1.61277759E-01  3.04752488E+03
  4.57369518E+02  1.03948685E+02  2.92101553E+01  9.28666296E+00  3.16392696E+00
  7.86827235E+00  1.88128854E+00  5.44249258E-01  1.68714478E-01  8.00000000E-01
  3.04752488E+03  4.57369518E+02  1.03948685E+02  2.92101553E+01  9.28666296E+00
  3.16392696E+00  7.86827235E+00  1.88128854E+00  5.44249258E-01  1.68714478E-01
  8.00000000E-01  1.87311370E+01  2.82539436E+00  6.40121692E-01  1.61277759E-01
  1.87311370E+01  2.82539436E+00  6.40121692E-01  1.61277759E-01  1.87311370E+01
  2.82539436E+00  6.40121692E-01  1.61277759E-01  3.04752488E+03  4.57369518E+02
  1.03948685E+02  2.92101553E+01  9.28666296E+00  3.16392696E+00  7.86827235E+00
  1.88128854E+00  5.44249258E-01  1.68714478E-01  8.00000000E-01  1.87311370E+01
  2.82539436E+00  6.40121692E-01  1.61277759E-01
Contraction coefficients                   R   N=         128
  3.34946043E-02  2.34726953E-01  8.13757326E-01  1.00000000E+00  1.83473713E-03
  1.40373228E-02  6.88426223E-02  2.32184443E-01  4.67941348E-01  3.62311985E-01
 -1.19332420E-01 -1.60854152E-01  1.14345644E+00  1.00000000E+00  1.00000000E+00
  1.83473713E-03  1.40373228E-02  6.88426223E-02  2.32184443E-01  4.67941348E-01
  3.62311985E-01 -1.19332420E-01 -1.60854152E-01  1.14345644E+00  1.00000000E+00
  1.00000000E+00  3.34946043E-02  2.34726953E-01  8.13757326E-01  1.00000000E+00
  1.83473713E-03  1.40373228E-02  6.88426223E-02  2.32184443E-01  4.67941348E-01
  3.62311985E-01 -1.19332420E-01 -1.60854152E-01  1.14345644E+00  1.00000000E+00
  1.00000000E+00  1.83473713E-03  1.40373228E-02  6.88426223E-02  2.32184443E-01
  4.67941348E-01  3.62311985E-01 -1.19332420E-01 -1.60854152E-01  1.14345644E+00
  1.00000000E+00  1.00000000E+00  3.34946043E-02  2.34726953E-01  8.13757326E-01
  1.00000000E+00  3.34946043E-02  2.34726953E-01  8.13757326E-01  1.00000000E+00
  3.34946043E-02  2.34726953E-01  8.13757326E-01  1.00000000E+00  1.83473713E-03
  1.40373228E-02  6.88426223E-02  2.32184443E-01  4.67941348E-01  3.62311985E-01
 -1.19332420E-01 -1.60854152E-01  1.14345644E+00  1.00000000E+00  1.00000000E+00
  3.34946043E-02  2.34726953E-01  8.13757326E-01  1.00000000E+00  1.83473713E-03
  1.40373228E-02  6.88426223E-02  2.32184443E-01  4.67941348E-01  3.62311985E-01
 -1.19332420E-01 -1.60854152E-01  1.14345644E+00  1.00000000E+00  1.00000000E+00
  1.83473713E-03  1.40373228E-02  6.88426223E-02  2.32184443E-01  4.67941348E-01
  3.62311985E-01 -1.19332420E-01 -1.60854152E-01  1.14345644E+00  1.00000000E+00
  1.00000000E+00  3.34946043E-02  2.34726953E-01  8.13757326E-01  1.00000000E+00
  3.34946043E-02  2.34726953E-01  8.13757326E-01  1.00000000E+00  3.34946043E-02
  2.34726953E-01  8.13757326E-01  1.00000000E+00  1.83473713E-03  1.40373228E-02
  6.88426223E-02  2.32184443E-01  4.67941348E-01  3.62311985E-01 -1.19332420E-01
 -1.60854152E-01  1.14345644E+00  1.00000000E+00  1.00000000E+00  3.34946043E-02
  2.34726953E-01  8.13757326E-01  1.00000000E+00
P(S=P) Contraction coefficients            R   N=         128
  0.00000000E+00  0.00000000E+00  0.00000000E+00  0.00000000E+00  0.00000000E+00
  0.00000000E+00  0.00000000E+00  0.00000000E+00  0.00000000E+00  0.00000000E+00
  6.89990666E-02  3.16423961E-01  7.44308291E-01  1.00000000E+00  0.00000000E+00
  0.00000000E+00  0.00000000E+00  0.00000000E+00  0.00000000E+00  0.00000000E+00
  0.00000000E+00  6.89990666E-02  3.16423961E-01  7.44308291E-01  1.00000000E+00
  0.00000000E+00  0.00000000E+00  0.00000000E+00  0.00000000E+00  0.00000000E+00
  0.00000000E+00  0.00000000E+00  0.00000000E+00  0.00000000E+00  0.00000000E+00
  0.00000000E+00  6.89990666E-02  3.16423961E-01  7.44308291E-01  1.00000000E+00
  0.00000000E+00  0.00000000E+00  0.00000000E+00  0.00000000E+00  0.00000000E+00
  0.00000000E+00  0.00000000E+00  6.89990666E-02  3.16423961E-01  7.44308291E-01
  1.00000000E+00  0.00000000E+00  0.00000000E+00  0.00000000E+00  0.00000000E+00
  0.00000000E+00  0.00000000E+00  0.00000000E+00  0.00000000E+00  0.00000000E+00
  0.00000000E+00  0.00000000E+00  0.00000000E+00  0.00000000E+00  0.00000000E+00
  0.00000000E+00  0.00000000E+00  0.00000000E+00  0.00000000E+00  0.00000000E+00
  6.89990666E-02  3.16423961E-01  7.44308291E-01  1.00000000E+00  0.00000000E+00
  0.00000000E+00  0.00000000E+00  0.00000000E+00  0.00000000E+00  0.00000000E+00
  0.00000000E+00  0.00000000E+00  0.00000000E+00  0.00000000E+00  0.00000000E+00
  6.89990666E-02  3.16423961E-01  7.44308291E-01  1.00000000E+00  0.00000000E+00
  0.00000000E+00  0.00000000E+00  0.00000000E+00  0.00000000E+00  0.00000000E+00
  0.00000000E+00  6.89990666E-02  3.16423961E-01  7.44308291E-01  1.00000000E+00
  0.00000000E+00  0.00000000E+00  0.00000000E+00  0.00000000E+00  0.00000000E+00
  0.00000000E+00  0.00000000E+00  0.00000000E+00  0.00000000E+00  0.00000000E+00
  0.00000000E+00  0.00000000E+00  0.00000000E+00  0.00000000E+00  0.00000000E+00
  0.00000000E+00  0.00000000E+00  0.00000000E+00  0.00000000E+00  6.89990666E-02
  3.16423961E-01  7.44308291E-01  1.00000000E+00  0.00000000E+00  0.00000000E+00
  0.00000000E+00  0.00000000E+00  0.00000000E+00
Coordinates of each shell                  R   N=         156
  0.00000000E+00  0.00000000E+00  0.00000000E+00  0.00000000E+00  0.00000000E+00
  0.00000000E+00  0.00000000E+00  0.00000000E+00  2.00310984E+00  0.00000000E+00
  0.00000000E+00  2.00310984E+00  0.00000000E+00  0.00000000E+00  2.00310984E+00
  0.00000000E+00  0.00000000E+00  2.00310984E+00 -2.27158745E+00 -2.15428778E-06
  3.30702563E+00 -2.27158745E+00 -2.15428778E-06  3.30702563E+00 -2.27158745E+00
 -2.15428778E-06  3.30702563E+00 -2.27158745E+00 -2.15428778E-06  3.30702563E+00
 -3.98197862E+00  7.42662367E-06  2.30547243E+00 -3.98197862E+00  7.42662367E-06
  2.30547243E+00 -2.24485638E+00  1.21131445E-05  5.91485494E+00 -2.24485638E+00
  1.21131445E-05  5.91485494E+00 -2.24485638E+00  1.21131445E-05  5.91485494E+00
 -2.24485638E+00  1.21131445E-05  5.91485494E+00 -4.70353777E+00  3.19363715E-06
  7.33216155E+00 -4.70353777E+00  3.19363715E-06  7.33216155E+00 -4.70353777E+00
  3.19363715E-06  7.33216155E+00 -4.70353777E+00  3.19363715E-06  7.33216155E+00
 -5.30484400E+00 -1.96425518E+00  7.67231292E+00 -5.30484400E+00 -1.96425518E+00
  7.67231292E+00 -4.46300128E+00  9.88826293E-01  9.14628075E+00 -4.46300128E+00
  9.88826293E-01  9.14628075E+00 -6.16003317E+00  9.75458390E-01  6.21721397E+00
 -6.16003317E+00  9.75458390E-01  6.21721397E+00  2.06736038E-05  9.61870597E-06
  7.21875432E+00  2.06736038E-05  9.61870597E-06  7.21875432E+00  2.06736038E-05
  9.61870597E-06  7.21875432E+00  2.06736038E-05  9.61870597E-06  7.21875432E+00
  3.95708650E-05  9.61870597E-06  9.22186417E+00  3.95708650E-05  9.61870597E-06
  9.22186417E+00  2.27162702E+00  1.17729938E-05  5.91481964E+00  2.27162702E+00
  1.17729938E-05  5.91481964E+00  2.27162702E+00  1.17729938E-05  5.91481964E+00
  2.27162702E+00  1.17729938E-05  5.91481964E+00  4.70359480E+00  2.51333575E-06
  7.33211423E+00  4.70359480E+00  2.51333575E-06  7.33211423E+00  4.70359480E+00
  2.51333575E-06  7.33211423E+00  4.70359480E+00  2.51333575E-06  7.33211423E+00
  5.30489143E+00 -1.96425596E+00  7.67226199E+00  5.30489143E+00 -1.96425596E+00
  7.67226199E+00  6.16007453E+00  9.75457483E-01  6.21716133E+00  6.16007453E+00
  9.75457483E-01  6.21716133E+00  4.46308260E+00  9.88825632E-01  9.14623863E+00
  4.46308260E+00  9.88825632E-01  9.14623863E+00  2.27161668E+00 -2.49443848E-06
  3.30699740E+00  2.27161668E+00 -2.49443848E-06  3.30699740E+00  2.27161668E+00
 -2.49443848E-06  3.30699740E+00  2.27161668E+00 -2.49443848E-06  3.30699740E+00
  3.98198896E+00  6.84080857E-06  2.30544074E+00  3.98198896E+00  6.84080857E-06
  2.30544074E+00
Num ILSW                                   I              100
ILSW                                       I   N=         100
           0           1           0           0           2           0
           0           0           0           0         402          -1
           5           0           0           0           0           0
           0           0           1           0           0           0
           1           1           0           0           0           0
           0           0      100000           0          -1           0
           0           0           0           0           0           0
           0           0           0           1           0           0
           0 -2000000000           1           0           0           0
           0           0           4          52           0           0
           0           0           5           0           0           0
           0           0           0           0           0           1
           0           0           0           0           0           0
           0           0           0           0           0           0
           0           0           0           0           0           0
           0           0           0           0           0           0
           0           0           0           0
Num RLSW                                   I               52
RLSW                                       R   N=          52
  8.00000000E-01  7.20000000E-01  1.00000000E+00  8.10000000E-01  2.00000000E-01
  0.00000000E+00  0.00000000E+00  1.00000000E+00  0.00000000E+00  0.00000000E+00
  0.00000000E+00  0.00000000E+00  1.00000000E+00  0.00000000E+00  0.00000000E+00
  0.00000000E+00  0.00000000E+00  1.00000000E+00  0.00000000E+00  0.00000000E+00
  0.00000000E+00  0.00000000E+00  1.00000000E+00  0.00000000E+00  0.00000000E+00
  0.00000000E+00  0.00000000E+00  1.00000000E+00  0.00000000E+00  0.00000000E+00
  0.00000000E+00  0.00000000E+00  1.00000000E+00  0.00000000E+00  0.00000000E+00
  0.00000000E+00  0.00000000E+00  0.00000000E+00  1.00000000E+00  1.00000000E+00
  0.00000000E+00  1.00000000E+00  0.00000000E+00  0.00000000E+00  0.00000000E+00
  0.00000000E+00  0.00000000E+00  0.00000000E+00  0.00000000E+00  0.00000000E+00
  0.00000000E+00  0.00000000E+00
MxBond                                     I                4
NBond                                      I   N=          18
           1           3           3           1           3           4
           1           1           1           3           1           3
           4           1           1           1           3           1
IBond                                      I   N=          72
           2           0           0           0           1           3
          17           0           2           4           5           0
           3           0           0           0           3           6
          10           0           5           7           8           9
           6           0           0           0           6           0
           0           0           6           0           0           0
           5          11          12           0          10           0
           0           0          10          13          17           0
          12          14          15          16          13           0
           0           0          13           0           0           0
          13           0           0           0           2          12
          18           0          17           0           0           0
RBond                                      R   N=          72
  1.00000000E+00  0.00000000E+00  0.00000000E+00  0.00000000E+00  1.00000000E+00
  1.50000000E+00  1.50000000E+00  0.00000000E+00  1.50000000E+00  1.00000000E+00
  1.50000000E+00  0.00000000E+00  1.00000000E+00  0.00000000E+00  0.00000000E+00
  0.00000000E+00  1.50000000E+00  1.00000000E+00  1.50000000E+00  0.00000000E+00
  1.00000000E+00  1.00000000E+00  1.00000000E+00  1.00000000E+00  1.00000000E+00
  0.00000000E+00  0.00000000E+00  0.00000000E+00  1.00000000E+00  0.00000000E+00
  0.00000000E+00  0.00000000E+00  1.00000000E+00  0.00000000E+00  0.00000000E+00
  0.00000000E+00  1.50000000E+00  1.00000000E+00  1.50000000E+00  0.00000000E+00
  1.00000000E+00  0.00000000E+00  0.00000000E+00  0.00000000E+00  1.50000000E+00
  1.00000000E+00  1.50000000E+00  0.00000000E+00  1.00000000E+00  1.00000000E+00
  1.00000000E+00  1.00000000E+00  1.00000000E+00  0.00000000E+00  0.00000000E+00
  0.00000000E+00  1.00000000E+00  0.00000000E+00  0.00000000E+00  0.00000000E+00
  1.00000000E+00  0.00000000E+00  0.00000000E+00  0.00000000E+00  1.50000000E+00
  1.50000000E+00  1.00000000E+00  0.00000000E+00  1.00000000E+00  0.00000000E+00
  0.00000000E+00  0.00000000E+00
Virial Ratio                               R      2.008451078192924E+00
SCF Energy                                 R     -3.108771269769832E+02
Total Energy                               R     -3.108771269769832E+02
RMS Density                                R      4.089745445519160E-09
Job Status                                 I                1
Nuclear derivative order                   I                0
External E-field                           R   N=          35
  0.00000000E+00  0.00000000E+00  0.00000000E+00  0.00000000E+00  0.00000000E+00
  0.00000000E+00  0.00000000E+00  0.00000000E+00  0.00000000E+00  0.00000000E+00
  0.00000000E+00  0.00000000E+00  0.00000000E+00  0.00000000E+00  0.00000000E+00
  0.00000000E+00  0.00000000E+00  0.00000000E+00  0.00000000E+00  0.00000000E+00
  0.00000000E+00  0.00000000E+00  0.00000000E+00  0.00000000E+00  0.00000000E+00
  0.00000000E+00  0.00000000E+00  0.00000000E+00  0.00000000E+00  0.00000000E+00
  0.00000000E+00  0.00000000E+00  0.00000000E+00  0.00000000E+00  0.00000000E+00
IOpCl                                      I                0
IROHF                                      I                0
Alpha Orbital Energies                     R   N=         140
 -1.01821285E+01 -1.01814886E+01 -1.01775491E+01 -1.01774917E+01 -1.01750794E+01
 -1.01683709E+01 -1.01682725E+01 -1.01678792E+01 -8.56789664E-01 -7.79295744E-01
 -7.54567645E-01 -6.85994299E-01 -6.73805578E-01 -5.94554347E-01 -5.62591201E-01
 -5.03880464E-01 -4.64338414E-01 -4.41655903E-01 -4.23426051E-01 -4.12927647E-01
 -4.05517239E-01 -3.98184609E-01 -3.92480617E-01 -3.66717671E-01 -3.38768352E-01
 -3.31299436E-01 -3.25921736E-01 -2.37654685E-01 -2.29710774E-01  9.65980170E-03
  1.43150049E-02  1.02538769E-01  1.22109192E-01  1.31092549E-01  1.42339063E-01
  1.52661436E-01  1.60857789E-01  1.75754768E-01  1.89075859E-01  1.92116964E-01
  2.06312005E-01  2.26149199E-01  2.55796235E-01  2.60059050E-01  3.31712256E-01
  3.39573536E-01  3.50964841E-01  3.96791403E-01  4.28014124E-01  5.18382441E-01
  5.19711251E-01  5.56998115E-01  5.57178931E-01  5.69555920E-01  5.71882490E-01
  5.84987282E-01  5.89248517E-01  6.01268756E-01  6.29856975E-01  6.49787529E-01
  6.51670487E-01  6.64253590E-01  6.78773814E-01  7.28583381E-01  7.35969294E-01
  7.38106622E-01  7.70664869E-01  7.75418506E-01  7.97864791E-01  8.48086850E-01
  8.62727135E-01  8.69698351E-01  8.90287415E-01  8.93525181E-01  9.12375201E-01
  9.13520267E-01  9.28660156E-01  9.47316697E-01  9.59094708E-01  9.82107949E-01
  1.00368169E+00  1.05833623E+00  1.13157285E+00  1.13973166E+00  1.17947324E+00
  1.20881905E+00  1.21783181E+00  1.26942395E+00  1.33102833E+00  1.38690233E+00
  1.40491381E+00  1.42593416E+00  1.47198624E+00  1.48372181E+00  1.50173353E+00
  1.50580481E+00  1.56862301E+00  1.80933331E+00  1.83058767E+00  1.87450940E+00
  1.89422886E+00  1.91431938E+00  1.91621544E+00  1.92815780E+00  1.93306659E+00
  1.94614702E+00  2.00188167E+00  2.09470297E+00  2.10350972E+00  2.12756237E+00
  2.14572790E+00  2.20513510E+00  2.22933708E+00  2.23434613E+00  2.27877301E+00
  2.29441398E+00  2.35054294E+00  2.36020028E+00  2.36601195E+00  2.38825273E+00
  2.39755938E+00  2.46841795E+00  2.63951822E+00  2.64083118E+00  2.70574968E+00
  2.77496664E+00  2.78196628E+00  2.86187071E+00  2.86783782E+00  2.94343299E+00
  3.11361652E+00  3.49087996E+00  4.12460639E+00  4.13996691E+00  4.14168399E+00
  4.23647347E+00  4.24531469E+00  4.37839419E+00  4.44125672E+00  4.75024901E+00
Alpha MO coefficients                      R   N=       19600
 -6.35819409E-05 -4.12726522E-04  9.16082216E-04  1.20917825E-04 -2.58347851E-05
 -1.44976136E-06 -1.17738565E-05 -3.55694285E-03  2.55083379E-04 -2.25873133E-06
 -2.10856004E-03  4.57121382E-05  2.78969156E-05  6.41680551E-05 -1.70134763E-06
  4.76156832E-05  2.82041734E-07 -5.29177315E-05 -2.13662382E-04 -2.20830010E-05
 -5.35856660E-07 -1.88529178E-05  3.30522012E-03  1.91528415E-03 -3.59657598E-06
  8.58264614E-04 -4.49027189E-06 -7.69573159E-05 -7.91685324E-06 -6.83724118E-08
 -7.78863960E-06 -8.75709180E-07  6.01773831E-05  5.56722408E-04  9.98767664E-03
  5.94562153E-04  2.13147479E-06 -2.98720257E-06  3.23504004E-06 -3.94178969E-03
 -1.94444774E-03  1.75183241E-05  7.72224239E-04 -7.33508966E-06 -5.59213887E-05
 -5.89776125E-05 -2.93407026E-06  2.10124325E-05  8.14988707E-08  1.82213984E-04
 -6.20905390E-05 -2.55120032E-05  1.01652890E-05  9.38612787E-06 -1.65232806E-04
  1.02414373E-04 -7.14107337E-05  1.32337371E-04  2.07395208E-06 -2.96990876E-05
 -4.42713227E-05  6.13860052E-06  7.41042245E-06  6.18603816E-06 -2.27722969E-05
 -4.07824980E-05 -2.84440732E-05  2.43839894E-05  2.06396927E-06  7.89288077E-05
  2.05248440E-02  3.91735109E-04 -2.98573314E-04 -2.20217899E-06  2.24341360E-04
  8.36704275E-03  1.58707999E-03  2.56491282E-05 -3.44296758E-03 -6.16424870E-04
 -4.02828848E-04 -4.70180092E-04  2.17688069E-06  8.59209394E-05 -4.56896381E-06
  2.47181054E-06  5.42020401E-04  9.91832236E-01  4.98980470E-02 -2.70377637E-05
 -2.92528429E-06 -2.86712340E-05 -1.99226671E-02  2.67896544E-03 -1.16690645E-04
  1.49835065E-03 -9.18101214E-03 -9.46702854E-03 -9.06743275E-03 -1.68807704E-05
 -8.56492909E-05 -9.56187851E-06  3.04412131E-02  1.44186135E-03  2.78196348E-04
 -8.63493864E-05  1.60079792E-04  1.63262087E-03 -1.16108615E-03  5.10876232E-04
 -6.45291787E-04 -6.75387886E-04 -2.99426440E-04 -4.88736563E-04  2.38474685E-06
 -1.94389366E-04  3.58856150E-06 -1.53055941E-04  8.09263746E-04 -9.11362169E-05
  1.81783309E-05 -9.94469005E-05  1.37369106E-05  2.18488738E-02  4.82492758E-04
  5.19681399E-05 -1.19712585E-06 -3.65669250E-04  7.78248169E-03 -2.03501818E-03
  2.90917937E-05  3.19731968E-03 -4.52558682E-04 -4.04620645E-04 -6.61172249E-04
 -3.69485185E-06 -3.60982112E-05  4.30767391E-06  6.05648528E-06  6.00619988E-04
 -6.07626123E-05 -3.98754958E-04  1.03728440E-03  1.22693913E-04  2.64396692E-05
 -1.48344392E-06 -1.19562868E-05 -3.51083234E-03 -2.38254073E-04 -1.67599389E-06
 -2.05867286E-03  4.46443363E-05  2.54929477E-05  6.18618697E-05  1.68686411E-06
 -4.90590417E-05  3.44955594E-07  2.30659826E-02  5.46023361E-04 -5.55151449E-05
 -1.05416455E-06 -3.65537142E-04  7.70134775E-03  2.07984053E-03  2.81208985E-05
  3.15946993E-03 -4.62929906E-04 -4.16340049E-04 -6.76062413E-04  3.71727337E-06
  4.25396818E-05  4.20955522E-06  6.36030596E-06  6.16491770E-04  9.91680537E-01
  4.99128782E-02  6.09793822E-05 -2.38026726E-06 -3.19918863E-05 -1.98945779E-02
 -2.69386209E-03 -1.15112208E-04  1.47471037E-03 -9.19160027E-03 -9.47915797E-03
 -9.07505944E-03  1.67145947E-05  1.26362494E-04 -9.47016710E-06  3.22515934E-02