4MePh_transform_new_1 0.0                                               
SP        RB3LYP                                                      6-31G(d)            
Number of atoms                            I               15
Info1-9                                    I   N=           9
          24          24           0           0           0         110
           1          18        -502
Full Title                                 C   N=           3
4MePh_transform_new_1 0.0           
Route                                      C   N=           2
# nosymm b3lyp/6-31G*   
Charge                                     I                0
Multiplicity                               I                1
Number of electrons                        I               50
Number of alpha electrons                  I               25
Number of beta electrons                   I               25
Number of basis functions                  I              121
Number of independent functions            I              121
Number of point charges in /Mol/           I                0
Number of translation vectors              I                0
Atomic numbers                             I   N=          15
           1           6           6           1           6           1
           6           6           1           1           1           6
           1           6           1
Nuclear charges                            R   N=          15
  1.00000000E+00  6.00000000E+00  6.00000000E+00  1.00000000E+00  6.00000000E+00
  1.00000000E+00  6.00000000E+00  6.00000000E+00  1.00000000E+00  1.00000000E+00
  1.00000000E+00  6.00000000E+00  1.00000000E+00  6.00000000E+00  1.00000000E+00
Current cartesian coordinates              R   N=          45
  0.00000000E+00  0.00000000E+00  0.00000000E+00  0.00000000E+00  0.00000000E+00
  2.00310977E+00 -2.27160438E+00  0.00000000E+00  3.30701871E+00 -3.98198610E+00
  0.00000000E+00  2.30547823E+00 -2.24486938E+00  0.00000000E+00  5.91485245E+00
 -3.98197185E+00  0.00000000E+00  6.91639125E+00  9.61870597E-06  0.00000000E+00
  7.21875406E+00  1.03368019E-05  0.00000000E+00  1.00533434E+01  1.26611650E-05
 -1.95091546E+00  1.07525420E+01  1.69704347E+00  9.75457728E-01  1.07525313E+01
 -1.69699927E+00  9.75457728E-01  1.07525339E+01  2.27161402E+00  0.00000000E+00
  5.91484511E+00  3.98199574E+00  0.00000000E+00  6.91638560E+00  2.27161865E+00
  0.00000000E+00  3.30702297E+00  3.98200037E+00  0.00000000E+00  2.30545368E+00
Number of symbols in /Mol/                 I                0
Force Field                                I                0
Atom Types                                 C   N=          15
                                                            
                                                            
                                                            
Int Atom Types                             I   N=          15
           0           0           0           0           0           0
           0           0           0           0           0           0
           0           0           0
MM charges                                 R   N=          15
  0.00000000E+00  0.00000000E+00  0.00000000E+00  0.00000000E+00  0.00000000E+00
  0.00000000E+00  0.00000000E+00  0.00000000E+00  0.00000000E+00  0.00000000E+00
  0.00000000E+00  0.00000000E+00  0.00000000E+00  0.00000000E+00  0.00000000E+00
Integer atomic weights                     I   N=          15
           1          12          12           1          12           1
          12          12           1           1           1          12
           1          12           1
Real atomic weights                        R   N=          15
  1.00782504E+00  1.20000000E+01  1.20000000E+01  1.00782504E+00  1.20000000E+01
  1.00782504E+00  1.20000000E+01  1.20000000E+01  1.00782504E+00  1.00782504E+00
  1.00782504E+00  1.20000000E+01  1.00782504E+00  1.20000000E+01  1.00782504E+00
Atom fragment info                         I   N=          15
           0           0           0           0           0           0
           0           0           0           0           0           0
           0           0           0
Atom residue num                           I   N=          15
           0           0           0           0           0           0
           0           0           0           0           0           0
           0           0           0
Nuclear spins                              I   N=          15
           1           0           0           1           0           1
           0           0           1           1           1           0
           1           0           1
Nuclear ZEff                               R   N=          15
 -1.00000000E+00 -3.60000000E+00 -3.60000000E+00 -1.00000000E+00 -3.60000000E+00
 -1.00000000E+00 -3.60000000E+00 -3.60000000E+00 -1.00000000E+00 -1.00000000E+00
 -1.00000000E+00 -3.60000000E+00 -1.00000000E+00 -3.60000000E+00 -1.00000000E+00
Nuclear ZNuc                               R   N=          15
  1.00000000E+00  6.00000000E+00  6.00000000E+00  1.00000000E+00  6.00000000E+00
  1.00000000E+00  6.00000000E+00  6.00000000E+00  1.00000000E+00  1.00000000E+00
  1.00000000E+00  6.00000000E+00  1.00000000E+00  6.00000000E+00  1.00000000E+00
Nuclear QMom                               R   N=          15
  0.00000000E+00  0.00000000E+00  0.00000000E+00  0.00000000E+00  0.00000000E+00
  0.00000000E+00  0.00000000E+00  0.00000000E+00  0.00000000E+00  0.00000000E+00
  0.00000000E+00  0.00000000E+00  0.00000000E+00  0.00000000E+00  0.00000000E+00
Nuclear GFac                               R   N=          15
  2.79284600E+00  0.00000000E+00  0.00000000E+00  2.79284600E+00  0.00000000E+00
  2.79284600E+00  0.00000000E+00  0.00000000E+00  2.79284600E+00  2.79284600E+00
  2.79284600E+00  0.00000000E+00  2.79284600E+00  0.00000000E+00  2.79284600E+00
MicOpt                                     I   N=          15
          -1          -1          -1          -1          -1          -1
          -1          -1          -1          -1          -1          -1
          -1          -1          -1
Number of residues                         I                0
Number of secondary structures             I                0
Number of contracted shells                I               44
Number of primitive shells                 I              109
Pure/Cartesian d shells                    I                1
Pure/Cartesian f shells                    I                0
Highest angular momentum                   I                2
Largest degree of contraction              I                6
Shell types                                I   N=          44
           0           0           0          -1          -1           2
           0          -1          -1           2           0           0
           0          -1          -1           2           0           0
           0          -1          -1           2           0          -1
          -1           2           0           0           0           0
           0           0           0          -1          -1           2
           0           0           0          -1          -1           2
           0           0
Number of primitives per shell             I   N=          44
           3           1           6           3           1           1
           6           3           1           1           3           1
           6           3           1           1           3           1
           6           3           1           1           6           3
           1           1           3           1           3           1
           3           1           6           3           1           1
           3           1           6           3           1           1
           3           1
Shell to atom map                          I   N=          44
           1           1           2           2           2           2
           3           3           3           3           4           4
           5           5           5           5           6           6
           7           7           7           7           8           8
           8           8           9           9          10          10
          11          11          12          12          12          12
          13          13          14          14          14          14
          15          15
Primitive exponents                        R   N=         109
  1.87311370E+01  2.82539436E+00  6.40121692E-01  1.61277759E-01  3.04752488E+03
  4.57369518E+02  1.03948685E+02  2.92101553E+01  9.28666296E+00  3.16392696E+00
  7.86827235E+00  1.88128854E+00  5.44249258E-01  1.68714478E-01  8.00000000E-01
  3.04752488E+03  4.57369518E+02  1.03948685E+02  2.92101553E+01  9.28666296E+00
  3.16392696E+00  7.86827235E+00  1.88128854E+00  5.44249258E-01  1.68714478E-01
  8.00000000E-01  1.87311370E+01  2.82539436E+00  6.40121692E-01  1.61277759E-01
  3.04752488E+03  4.57369518E+02  1.03948685E+02  2.92101553E+01  9.28666296E+00
  3.16392696E+00  7.86827235E+00  1.88128854E+00  5.44249258E-01  1.68714478E-01
  8.00000000E-01  1.87311370E+01  2.82539436E+00  6.40121692E-01  1.61277759E-01
  3.04752488E+03  4.57369518E+02  1.03948685E+02  2.92101553E+01  9.28666296E+00
  3.16392696E+00  7.86827235E+00  1.88128854E+00  5.44249258E-01  1.68714478E-01
  8.00000000E-01  3.04752488E+03  4.57369518E+02  1.03948685E+02  2.92101553E+01
  9.28666296E+00  3.16392696E+00  7.86827235E+00  1.88128854E+00  5.44249258E-01
  1.68714478E-01  8.00000000E-01  1.87311370E+01  2.82539436E+00  6.40121692E-01
  1.61277759E-01  1.87311370E+01  2.82539436E+00  6.40121692E-01  1.61277759E-01
  1.87311370E+01  2.82539436E+00  6.40121692E-01  1.61277759E-01  3.04752488E+03
  4.57369518E+02  1.03948685E+02  2.92101553E+01  9.28666296E+00  3.16392696E+00
  7.86827235E+00  1.88128854E+00  5.44249258E-01  1.68714478E-01  8.00000000E-01
  1.87311370E+01  2.82539436E+00  6.40121692E-01  1.61277759E-01  3.04752488E+03
  4.57369518E+02  1.03948685E+02  2.92101553E+01  9.28666296E+00  3.16392696E+00
  7.86827235E+00  1.88128854E+00  5.44249258E-01  1.68714478E-01  8.00000000E-01
  1.87311370E+01  2.82539436E+00  6.40121692E-01  1.61277759E-01
Contraction coefficients                   R   N=         109
  3.34946043E-02  2.34726953E-01  8.13757326E-01  1.00000000E+00  1.83473713E-03
  1.40373228E-02  6.88426223E-02  2.32184443E-01  4.67941348E-01  3.62311985E-01
 -1.19332420E-01 -1.60854152E-01  1.14345644E+00  1.00000000E+00  1.00000000E+00
  1.83473713E-03  1.40373228E-02  6.88426223E-02  2.32184443E-01  4.67941348E-01
  3.62311985E-01 -1.19332420E-01 -1.60854152E-01  1.14345644E+00  1.00000000E+00
  1.00000000E+00  3.34946043E-02  2.34726953E-01  8.13757326E-01  1.00000000E+00
  1.83473713E-03  1.40373228E-02  6.88426223E-02  2.32184443E-01  4.67941348E-01
  3.62311985E-01 -1.19332420E-01 -1.60854152E-01  1.14345644E+00  1.00000000E+00
  1.00000000E+00  3.34946043E-02  2.34726953E-01  8.13757326E-01  1.00000000E+00
  1.83473713E-03  1.40373228E-02  6.88426223E-02  2.32184443E-01  4.67941348E-01
  3.62311985E-01 -1.19332420E-01 -1.60854152E-01  1.14345644E+00  1.00000000E+00
  1.00000000E+00  1.83473713E-03  1.40373228E-02  6.88426223E-02  2.32184443E-01
  4.67941348E-01  3.62311985E-01 -1.19332420E-01 -1.60854152E-01  1.14345644E+00
  1.00000000E+00  1.00000000E+00  3.34946043E-02  2.34726953E-01  8.13757326E-01
  1.00000000E+00  3.34946043E-02  2.34726953E-01  8.13757326E-01  1.00000000E+00
  3.34946043E-02  2.34726953E-01  8.13757326E-01  1.00000000E+00  1.83473713E-03
  1.40373228E-02  6.88426223E-02  2.32184443E-01  4.67941348E-01  3.62311985E-01
 -1.19332420E-01 -1.60854152E-01  1.14345644E+00  1.00000000E+00  1.00000000E+00
  3.34946043E-02  2.34726953E-01  8.13757326E-01  1.00000000E+00  1.83473713E-03
  1.40373228E-02  6.88426223E-02  2.32184443E-01  4.67941348E-01  3.62311985E-01
 -1.19332420E-01 -1.60854152E-01  1.14345644E+00  1.00000000E+00  1.00000000E+00
  3.34946043E-02  2.34726953E-01  8.13757326E-01  1.00000000E+00
P(S=P) Contraction coefficients            R   N=         109
  0.00000000E+00  0.00000000E+00  0.00000000E+00  0.00000000E+00  0.00000000E+00
  0.00000000E+00  0.00000000E+00  0.00000000E+00  0.00000000E+00  0.00000000E+00
  6.89990666E-02  3.16423961E-01  7.44308291E-01  1.00000000E+00  0.00000000E+00
  0.00000000E+00  0.00000000E+00  0.00000000E+00  0.00000000E+00  0.00000000E+00
  0.00000000E+00  6.89990666E-02  3.16423961E-01  7.44308291E-01  1.00000000E+00
  0.00000000E+00  0.00000000E+00  0.00000000E+00  0.00000000E+00  0.00000000E+00
  0.00000000E+00  0.00000000E+00  0.00000000E+00  0.00000000E+00  0.00000000E+00
  0.00000000E+00  6.89990666E-02  3.16423961E-01  7.44308291E-01  1.00000000E+00
  0.00000000E+00  0.00000000E+00  0.00000000E+00  0.00000000E+00  0.00000000E+00
  0.00000000E+00  0.00000000E+00  0.00000000E+00  0.00000000E+00  0.00000000E+00
  0.00000000E+00  6.89990666E-02  3.16423961E-01  7.44308291E-01  1.00000000E+00
  0.00000000E+00  0.00000000E+00  0.00000000E+00  0.00000000E+00  0.00000000E+00
  0.00000000E+00  0.00000000E+00  6.89990666E-02  3.16423961E-01  7.44308291E-01
  1.00000000E+00  0.00000000E+00  0.00000000E+00  0.00000000E+00  0.00000000E+00
  0.00000000E+00  0.00000000E+00  0.00000000E+00  0.00000000E+00  0.00000000E+00
  0.00000000E+00  0.00000000E+00  0.00000000E+00  0.00000000E+00  0.00000000E+00
  0.00000000E+00  0.00000000E+00  0.00000000E+00  0.00000000E+00  0.00000000E+00
  6.89990666E-02  3.16423961E-01  7.44308291E-01  1.00000000E+00  0.00000000E+00
  0.00000000E+00  0.00000000E+00  0.00000000E+00  0.00000000E+00  0.00000000E+00
  0.00000000E+00  0.00000000E+00  0.00000000E+00  0.00000000E+00  0.00000000E+00
  6.89990666E-02  3.16423961E-01  7.44308291E-01  1.00000000E+00  0.00000000E+00
  0.00000000E+00  0.00000000E+00  0.00000000E+00  0.00000000E+00
Coordinates of each shell                  R   N=         132
  0.00000000E+00  0.00000000E+00  0.00000000E+00  0.00000000E+00  0.00000000E+00
  0.00000000E+00  0.00000000E+00  0.00000000E+00  2.00310977E+00  0.00000000E+00
  0.00000000E+00  2.00310977E+00  0.00000000E+00  0.00000000E+00  2.00310977E+00
  0.00000000E+00  0.00000000E+00  2.00310977E+00 -2.27160438E+00  0.00000000E+00
  3.30701871E+00 -2.27160438E+00  0.00000000E+00  3.30701871E+00 -2.27160438E+00
  0.00000000E+00  3.30701871E+00 -2.27160438E+00  0.00000000E+00  3.30701871E+00
 -3.98198610E+00  0.00000000E+00  2.30547823E+00 -3.98198610E+00  0.00000000E+00
  2.30547823E+00 -2.24486938E+00  0.00000000E+00  5.91485245E+00 -2.24486938E+00
  0.00000000E+00  5.91485245E+00 -2.24486938E+00  0.00000000E+00  5.91485245E+00
 -2.24486938E+00  0.00000000E+00  5.91485245E+00 -3.98197185E+00  0.00000000E+00
  6.91639125E+00 -3.98197185E+00  0.00000000E+00  6.91639125E+00  9.61870597E-06
  0.00000000E+00  7.21875406E+00  9.61870597E-06  0.00000000E+00  7.21875406E+00
  9.61870597E-06  0.00000000E+00  7.21875406E+00  9.61870597E-06  0.00000000E+00
  7.21875406E+00  1.03368019E-05  0.00000000E+00  1.00533434E+01  1.03368019E-05
  0.00000000E+00  1.00533434E+01  1.03368019E-05  0.00000000E+00  1.00533434E+01
  1.03368019E-05  0.00000000E+00  1.00533434E+01  1.26611650E-05 -1.95091546E+00
  1.07525420E+01  1.26611650E-05 -1.95091546E+00  1.07525420E+01  1.69704347E+00
  9.75457728E-01  1.07525313E+01  1.69704347E+00  9.75457728E-01  1.07525313E+01
 -1.69699927E+00  9.75457728E-01  1.07525339E+01 -1.69699927E+00  9.75457728E-01
  1.07525339E+01  2.27161402E+00  0.00000000E+00  5.91484511E+00  2.27161402E+00
  0.00000000E+00  5.91484511E+00  2.27161402E+00  0.00000000E+00  5.91484511E+00
  2.27161402E+00  0.00000000E+00  5.91484511E+00  3.98199574E+00  0.00000000E+00
  6.91638560E+00  3.98199574E+00  0.00000000E+00  6.91638560E+00  2.27161865E+00
  0.00000000E+00  3.30702297E+00  2.27161865E+00  0.00000000E+00  3.30702297E+00
  2.27161865E+00  0.00000000E+00  3.30702297E+00  2.27161865E+00  0.00000000E+00
  3.30702297E+00  3.98200037E+00  0.00000000E+00  2.30545368E+00  3.98200037E+00
  0.00000000E+00  2.30545368E+00
Num ILSW                                   I              100
ILSW                                       I   N=         100
           0           1           0           0           2           0
           0           0           0           0         402          -1
           5           0           0           0           0           0
           0           0           1           0           0           0
           1           1           0           0           0           0
           0           0      100000           0          -1           0
           0           0           0           0           0           0
           0           0           0           1           0           0
           0 -2000000000           1           0           0           0
           0           0           4          52           0           0
           0           0           5           0           0           0
           0           0           0           0           0           1
           0           0           0           0           0           0
           0           0           0           0           0           0
           0           0           0           0           0           0
           0           0           0           0           0           0
           0           0           0           0
Num RLSW                                   I               52
RLSW                                       R   N=          52
  8.00000000E-01  7.20000000E-01  1.00000000E+00  8.10000000E-01  2.00000000E-01
  0.00000000E+00  0.00000000E+00  1.00000000E+00  0.00000000E+00  0.00000000E+00
  0.00000000E+00  0.00000000E+00  1.00000000E+00  0.00000000E+00  0.00000000E+00
  0.00000000E+00  0.00000000E+00  1.00000000E+00  0.00000000E+00  0.00000000E+00
  0.00000000E+00  0.00000000E+00  1.00000000E+00  0.00000000E+00  0.00000000E+00
  0.00000000E+00  0.00000000E+00  1.00000000E+00  0.00000000E+00  0.00000000E+00
  0.00000000E+00  0.00000000E+00  1.00000000E+00  0.00000000E+00  0.00000000E+00
  0.00000000E+00  0.00000000E+00  0.00000000E+00  1.00000000E+00  1.00000000E+00
  0.00000000E+00  1.00000000E+00  0.00000000E+00  0.00000000E+00  0.00000000E+00
  0.00000000E+00  0.00000000E+00  0.00000000E+00  0.00000000E+00  0.00000000E+00
  0.00000000E+00  0.00000000E+00
MxBond                                     I                4
NBond                                      I   N=          15
           1           3           3           1           3           1
           3           4           1           1           1           3
           1           3           1
IBond                                      I   N=          60
           2           0           0           0           1           3
          14           0           2           4           5           0
           3           0           0           0           3           6
           7           0           5           0           0           0
           5           8          12           0           7           9
          10          11           8           0           0           0
           8           0           0           0           8           0
           0           0           7          13          14           0
          12           0           0           0           2          12
          15           0          14           0           0           0
RBond                                      R   N=          60
  1.00000000E+00  0.00000000E+00  0.00000000E+00  0.00000000E+00  1.00000000E+00
  1.50000000E+00  1.50000000E+00  0.00000000E+00  1.50000000E+00  1.00000000E+00
  1.50000000E+00  0.00000000E+00  1.00000000E+00  0.00000000E+00  0.00000000E+00
  0.00000000E+00  1.50000000E+00  1.00000000E+00  1.50000000E+00  0.00000000E+00
  1.00000000E+00  0.00000000E+00  0.00000000E+00  0.00000000E+00  1.50000000E+00
  1.00000000E+00  1.50000000E+00  0.00000000E+00  1.00000000E+00  1.00000000E+00
  1.00000000E+00  1.00000000E+00  1.00000000E+00  0.00000000E+00  0.00000000E+00
  0.00000000E+00  1.00000000E+00  0.00000000E+00  0.00000000E+00  0.00000000E+00
  1.00000000E+00  0.00000000E+00  0.00000000E+00  0.00000000E+00  1.50000000E+00
  1.00000000E+00  1.50000000E+00  0.00000000E+00  1.00000000E+00  0.00000000E+00
  0.00000000E+00  0.00000000E+00  1.50000000E+00  1.50000000E+00  1.00000000E+00
  0.00000000E+00  1.00000000E+00  0.00000000E+00  0.00000000E+00  0.00000000E+00
Virial Ratio                               R      2.008177929383086E+00
SCF Energy                                 R     -2.715599353444759E+02
Total Energy                               R     -2.715599353444759E+02
RMS Density                                R      4.692792190687092E-09
Job Status                                 I                1
Nuclear derivative order                   I                0
External E-field                           R   N=          35
  0.00000000E+00  0.00000000E+00  0.00000000E+00  0.00000000E+00  0.00000000E+00
  0.00000000E+00  0.00000000E+00  0.00000000E+00  0.00000000E+00  0.00000000E+00
  0.00000000E+00  0.00000000E+00  0.00000000E+00  0.00000000E+00  0.00000000E+00
  0.00000000E+00  0.00000000E+00  0.00000000E+00  0.00000000E+00  0.00000000E+00
  0.00000000E+00  0.00000000E+00  0.00000000E+00  0.00000000E+00  0.00000000E+00
  0.00000000E+00  0.00000000E+00  0.00000000E+00  0.00000000E+00  0.00000000E+00
  0.00000000E+00  0.00000000E+00  0.00000000E+00  0.00000000E+00  0.00000000E+00
IOpCl                                      I                0
IROHF                                      I                0
Alpha Orbital Energies                     R   N=         121
 -1.01841082E+01 -1.01790341E+01 -1.01761965E+01 -1.01760302E+01 -1.01747864E+01
 -1.01730101E+01 -1.01728268E+01 -8.55121500E-01 -7.68436264E-01 -7.43690172E-01
 -6.79375926E-01 -6.05613667E-01 -5.80345132E-01 -5.11276337E-01 -4.56021055E-01
 -4.54728822E-01 -4.21091997E-01 -4.19880988E-01 -4.00024999E-01 -3.80313431E-01
 -3.50311433E-01 -3.37699559E-01 -3.32504727E-01 -2.45545592E-01 -2.34961337E-01
  7.82905276E-03  1.18616233E-02  1.02992370E-01  1.25062204E-01  1.43852155E-01
  1.50803103E-01  1.73198359E-01  1.77790752E-01  1.97093503E-01  2.00382365E-01
  2.15696442E-01  2.47357850E-01  3.19098691E-01  3.25983617E-01  3.42612459E-01
  3.55986551E-01  4.60434045E-01  5.23357150E-01  5.26484961E-01  5.56656652E-01
  5.59630400E-01  5.71263374E-01  5.85865007E-01  6.05469534E-01  6.06353894E-01
  6.27330641E-01  6.28558973E-01  6.41982131E-01  6.56947460E-01  6.64690706E-01
  7.12581412E-01  7.34661621E-01  7.56236744E-01  7.78677878E-01  8.49868929E-01
  8.64405745E-01  8.66149689E-01  8.88552784E-01  8.91595015E-01  9.10219158E-01
  9.44270983E-01  9.49384698E-01  9.61830436E-01  9.77282082E-01  1.02112754E+00
  1.09678620E+00  1.12627742E+00  1.15020232E+00  1.19877059E+00  1.21551909E+00
  1.26667201E+00  1.37731305E+00  1.38275525E+00  1.45072065E+00  1.46777638E+00
  1.48679385E+00  1.49186968E+00  1.50624327E+00  1.51740305E+00  1.81396592E+00
  1.82167860E+00  1.85900207E+00  1.91295448E+00  1.91673663E+00  1.93587510E+00
  1.96586135E+00  2.02577076E+00  2.09345786E+00  2.10187227E+00  2.14055992E+00
  2.15903185E+00  2.18614757E+00  2.20674584E+00  2.27342509E+00  2.28833076E+00
  2.32932489E+00  2.35255506E+00  2.37044768E+00  2.43264941E+00  2.59675047E+00
  2.60589537E+00  2.69637343E+00  2.75602932E+00  2.76895671E+00  2.77431204E+00
  2.80869821E+00  2.89194120E+00  3.07822844E+00  3.48588174E+00  4.11647024E+00
  4.13351124E+00  4.13679476E+00  4.23824870E+00  4.34502013E+00  4.40583787E+00
  4.72066821E+00
Alpha MO coefficients                      R   N=       14641
  4.92509479E-05  5.25310493E-04 -3.74433426E-04 -2.43569159E-04 -2.79542676E-07
 -1.71384335E-06 -2.37433875E-05  3.51794792E-03 -1.18631398E-05  6.66979433E-06
  2.06087120E-03  1.51068557E-05 -7.92383515E-05 -7.14339022E-06 -2.46787929E-08
 -1.79886544E-07  5.86130297E-07  1.07384563E-03  1.28155058E-04  1.82621971E-06
 -1.24529369E-06 -2.15542748E-05 -3.41831907E-03 -1.96145851E-03 -6.33823249E-06
 -9.03390731E-04  2.02377111E-05  2.60811931E-05  8.57582452E-05  6.27427791E-07
  3.38851327E-05 -1.14362595E-06 -7.23949765E-05 -4.51637889E-04  2.81770855E-02
  7.90646308E-04 -3.48496023E-04 -1.68510870E-06 -1.49734697E-04  7.79397439E-03
  3.70705401E-03  3.19082989E-05 -1.14281844E-04 -6.39658653E-04 -4.66348548E-04
 -5.93224864E-04  5.77991924E-06 -1.19849236E-04 -1.04154138E-06 -3.75980603E-06
  5.57713871E-04  9.91714819E-01  4.98728137E-02 -2.21954428E-05 -5.19513358E-06
 -6.50876112E-05 -1.96785606E-02  7.42719319E-05 -1.15992200E-04  2.91470463E-03
 -9.01650966E-03 -9.47435183E-03 -9.24072845E-03  8.40450197E-08  1.70097395E-05
 -1.90431085E-05  2.56304635E-02  1.20674307E-03 -1.10320332E-06 -8.60490269E-05
  3.03541145E-04  1.73479978E-03 -9.66727895E-06  5.04982960E-04 -1.32888753E-03
 -3.44927056E-04 -2.55706167E-04 -7.25370812E-04 -2.87545973E-07  2.81440568E-06
  3.33842998E-06 -1.56279029E-04  7.85474722E-04 -9.60423937E-05 -2.79048008E-06
 -9.62857741E-05 -8.18825659E-06  2.62297917E-02  7.18880483E-04  3.36671689E-04
 -1.53812792E-06 -1.38570625E-04  7.62299065E-03 -3.66680913E-03  3.09186380E-05
 -2.14447798E-04 -6.26771498E-04 -4.46489064E-04 -5.71356159E-04 -5.77844843E-06
  1.28586652E-04 -1.02543767E-06 -1.36886424E-06  5.83905882E-04  9.87152473E-04
  1.25086137E-04 -2.49569473E-06 -1.30557862E-06 -2.34955154E-05 -3.46606288E-03
  1.93168206E-03 -5.88219086E-06 -9.39210219E-04  2.27798457E-05  2.71291740E-05
  8.40819851E-05 -6.72755194E-07 -3.15824771E-05 -1.06714546E-06 -7.00434346E-05
 -4.42492144E-04 -5.08252934E-05 -2.21925646E-04  4.37693264E-05  4.12972638E-05
 -4.16734471E-07  3.54651947E-06 -1.97615988E-05 -1.27346731E-03 -4.88663002E-06
 -4.53764415E-05 -9.87580557E-04  6.27911913E-07 -5.79389609E-06 -2.17459759E-06
 -2.64161351E-08 -4.11032218E-07 -3.28381729E-06 -3.43225142E-04 -2.06486787E-04
 -1.14534365E-05 -9.48850187E-06 -6.24228919E-06  2.23117119E-03  8.73907816E-04
  6.85544361E-05  1.09429687E-03 -1.15690520E-05 -7.40243058E-05  3.60046784E-05
  3.10423229E-06  1.04453982E-05  5.60313748E-06  1.16853194E-05  4.01814623E-04
 -1.59576841E-03 -1.24701138E-04  2.39713681E-05  2.06189419E-05 -1.02474498E-04
 -1.42528279E-03 -2.66066082E-04 -1.21974536E-04  1.14838140E-03  1.36578673E-04
 -3.16590503E-05 -1.74388548E-05 -7.73298623E-06  8.68653834E-06 -8.35174559E-06
 -8.05249407E-05 -2.10280479E-04 -2.57726909E-02 -1.51770818E-03  1.83275596E-06
 -2.11099630E-05 -2.37306128E-04  5.42768771E-03  2.78886556E-05  1.23250888E-04
  2.57783417E-03  7.87385571E-05  1.11170287E-04 -1.53016840E-04 -1.27488488E-07
 -2.80579357E-06 -1.13558095E-05  9.92591643E-01  5.02047257E-02  1.23348726E-06
 -3.82798738E-05 -1.07924518E-04 -1.79764480E-02 -5.01278008E-06  7.42485549E-05
  1.63894024E-03 -9.10876999E-03 -9.08787953E-03 -9.23394094E-03 -1.55302624E-07
  3.76543895E-07  6.32697732E-06 -1.62932857E-05  2.77365110E-03 -3.96178766E-06
  2.62669481E-03 -3.72119468E-06  2.62283303E-03 -1.52779619E-03 -1.18077243E-04
 -1.95789204E-05  2.09765755E-05 -1.02670041E-04 -1.44874616E-03  3.14614608E-04
 -1.22148711E-04  1.13121579E-03  1.32558552E-04 -3.13815332E-05 -2.01908634E-05
  7.79787046E-06 -6.73315558E-06 -8.27859907E-06 -8.22385546E-05 -2.30517729E-04
 -3.27803036E-04 -2.07066995E-04  1.26592574E-05 -9.60033252E-06 -5.67327004E-06
  2.23463996E-03 -8.84988362E-04  6.89477779E-05  1.09078626E-03 -1.13433551E-05
 -7.45918454E-05  3.66662841E-05 -3.06013590E-06 -9.97388691E-06  5.64343011E-06
  1.23744575E-05  4.06245247E-04 -9.20129056E-05  1.33384534E-03  2.91600442E-01
  1.38724727E-02  1.13207042E-04  1.21738719E-06 -2.26623185E-04  5.33503515E-03
 -7.01277839E-04 -1.43581810E-06  3.74061076E-03 -3.23023591E-03 -3.08350259E-03
 -3.04359671E-03  2.58934144E-09  2.71274911E-05 -2.20727168E-07  8.49032196E-01
  4.26835232E-02  7.28847268E-06  3.10294643E-06  9.22189911E-05 -1.54244267E-02
 -3.12599402E-03 -7.03672178E-07 -2.21722793E-03 -8.03202186E-03 -8.30421405E-03
 -8.02312047E-03 -1.47504385E-07  5.27934245E-06  2.62016203E-07 -4.59935558E-04
  8.95607924E-04  7.71967213E-02  3.24993251E-03 -4.51125475E-05 -9.62835337E-07
  3.13926701E-04  6.76167107E-03  2.29428004E-03 -4.42641130E-06 -2.86773618E-03
 -9.29398112E-04 -9.56918249E-04 -1.04007217E-03 -9.92985497E-07 -3.50449343E-05
  2.69484328E-07  5.91399568E-06  8.46959548E-04 -4.47073981E-03 -2.06000207E-04
  1.11514022E-05 -1.06510666E-06  6.22920890E-05 -3.63539190E-03  1.44843325E-04
  2.16251721E-05  1.69224028E-03  7.74379034E-05  5.26821642E-05  7.87739083E-05
  2.99923726E-08  1.48645609E-05  2.86902726E-06  4.18746498E-04 -1.01863385E-04
  1.29556952E-06  9.90073002E-06  1.26708311E-05  1.62338197E-04 -7.87160048E-05
 -7.56051714E-05 -1.61214722E-04 -3.43356038E-05 -4.59667577E-05 -9.07611855E-08
 -4.04479670E-06  1.39769464E-05 -2.69034910E-06 -3.34587358E-05 -5.89625470E-05
 -1.71818814E-05  5.89053934E-05 -3.05111040E-05  2.83453508E-05  3.89870980E-02
  1.52749501E-03  4.56943042E-05  2.37874118E-07  1.65428138E-04  4.74570161E-03
 -1.91234174E-03 -7.27657245E-06 -2.05256242E-03 -4.64231586E-04 -5.25648792E-04
 -4.98302913E-04  1.09599093E-06  1.48552903E-05  8.64247941E-08  3.42952013E-05
  7.25869729E-04  4.14501631E-01  2.08005495E-02  7.01200227E-05  1.44292633E-06
  7.39393825E-05 -8.85690181E-03  2.12562587E-03  1.34457212E-06 -1.80562047E-03
 -3.90755610E-03 -4.06192933E-03 -3.94982102E-03  1.34022319E-07 -9.63467468E-06
  4.12077326E-07 -2.56178572E-04  2.72107402E-04 -3.74208951E-05  4.39046350E-04
  1.07771381E-01  5.16751197E-03 -3.47662526E-04  4.44079764E-07 -7.14515666E-05
  1.39551060E-03  2.11286100E-03 -4.76547116E-07  1.11179467E-03 -1.17242875E-03
 -1.12742376E-03 -1.10914911E-03  3.75068322E-10 -8.43334805E-05 -6.96267646E-08