4
acetylene.log	Energy:  -47938.5681889
C          0.00000        0.00000        0.60060
H          0.00000        0.00000        1.67060
C          0.00000        0.00000       -0.60060
H          0.00000        0.00000       -1.67060
