acetylene_transform_new_1 0.0                                           
SP        RB3LYP                                                      6-31G(d)            
Number of atoms                            I                4
Info1-9                                    I   N=           9
          13          13           0           0           0         110
           1          18        -502
Full Title                                 C   N=           3
acetylene_transform_new_1 0.0       
Route                                      C   N=           2
# nosymm b3lyp/6-31G*   
Charge                                     I                0
Multiplicity                               I                1
Number of electrons                        I               14
Number of alpha electrons                  I                7
Number of beta electrons                   I                7
Number of basis functions                  I               34
Number of independent functions            I               34
Number of point charges in /Mol/           I                0
Number of translation vectors              I                0
Atomic numbers                             I   N=           4
           1           6           6           1
Nuclear charges                            R   N=           4
  1.00000000E+00  6.00000000E+00  6.00000000E+00  1.00000000E+00
Current cartesian coordinates              R   N=          12
  0.00000000E+00  0.00000000E+00  0.00000000E+00  0.00000000E+00  0.00000000E+00
  2.02200695E+00  0.00000000E+00  0.00000000E+00  4.29194597E+00  0.00000000E+00
  0.00000000E+00  6.31395293E+00
Number of symbols in /Mol/                 I                0
Force Field                                I                0
Atom Types                                 C   N=           4
                                                
Int Atom Types                             I   N=           4
           0           0           0           0
MM charges                                 R   N=           4
  0.00000000E+00  0.00000000E+00  0.00000000E+00  0.00000000E+00
Integer atomic weights                     I   N=           4
           1          12          12           1
Real atomic weights                        R   N=           4
  1.00782504E+00  1.20000000E+01  1.20000000E+01  1.00782504E+00
Atom fragment info                         I   N=           4
           0           0           0           0
Atom residue num                           I   N=           4
           0           0           0           0
Nuclear spins                              I   N=           4
           1           0           0           1
Nuclear ZEff                               R   N=           4
 -1.00000000E+00 -3.60000000E+00 -3.60000000E+00 -1.00000000E+00
Nuclear ZNuc                               R   N=           4
  1.00000000E+00  6.00000000E+00  6.00000000E+00  1.00000000E+00
Nuclear QMom                               R   N=           4
  0.00000000E+00  0.00000000E+00  0.00000000E+00  0.00000000E+00
Nuclear GFac                               R   N=           4
  2.79284600E+00  0.00000000E+00  0.00000000E+00  2.79284600E+00
MicOpt                                     I   N=           4
          -1          -1          -1          -1
Number of residues                         I                0
Number of secondary structures             I                0
Number of contracted shells                I               12
Number of primitive shells                 I               30
Pure/Cartesian d shells                    I                1
Pure/Cartesian f shells                    I                0
Highest angular momentum                   I                2
Largest degree of contraction              I                6
Shell types                                I   N=          12
           0           0           0          -1          -1           2
           0          -1          -1           2           0           0
Number of primitives per shell             I   N=          12
           3           1           6           3           1           1
           6           3           1           1           3           1
Shell to atom map                          I   N=          12
           1           1           2           2           2           2
           3           3           3           3           4           4
Primitive exponents                        R   N=          30
  1.87311370E+01  2.82539436E+00  6.40121692E-01  1.61277759E-01  3.04752488E+03
  4.57369518E+02  1.03948685E+02  2.92101553E+01  9.28666296E+00  3.16392696E+00
  7.86827235E+00  1.88128854E+00  5.44249258E-01  1.68714478E-01  8.00000000E-01
  3.04752488E+03  4.57369518E+02  1.03948685E+02  2.92101553E+01  9.28666296E+00
  3.16392696E+00  7.86827235E+00  1.88128854E+00  5.44249258E-01  1.68714478E-01
  8.00000000E-01  1.87311370E+01  2.82539436E+00  6.40121692E-01  1.61277759E-01
Contraction coefficients                   R   N=          30
  3.34946043E-02  2.34726953E-01  8.13757326E-01  1.00000000E+00  1.83473713E-03
  1.40373228E-02  6.88426223E-02  2.32184443E-01  4.67941348E-01  3.62311985E-01
 -1.19332420E-01 -1.60854152E-01  1.14345644E+00  1.00000000E+00  1.00000000E+00
  1.83473713E-03  1.40373228E-02  6.88426223E-02  2.32184443E-01  4.67941348E-01
  3.62311985E-01 -1.19332420E-01 -1.60854152E-01  1.14345644E+00  1.00000000E+00
  1.00000000E+00  3.34946043E-02  2.34726953E-01  8.13757326E-01  1.00000000E+00
P(S=P) Contraction coefficients            R   N=          30
  0.00000000E+00  0.00000000E+00  0.00000000E+00  0.00000000E+00  0.00000000E+00
  0.00000000E+00  0.00000000E+00  0.00000000E+00  0.00000000E+00  0.00000000E+00
  6.89990666E-02  3.16423961E-01  7.44308291E-01  1.00000000E+00  0.00000000E+00
  0.00000000E+00  0.00000000E+00  0.00000000E+00  0.00000000E+00  0.00000000E+00
  0.00000000E+00  6.89990666E-02  3.16423961E-01  7.44308291E-01  1.00000000E+00
  0.00000000E+00  0.00000000E+00  0.00000000E+00  0.00000000E+00  0.00000000E+00
Coordinates of each shell                  R   N=          36
  0.00000000E+00  0.00000000E+00  0.00000000E+00  0.00000000E+00  0.00000000E+00
  0.00000000E+00  0.00000000E+00  0.00000000E+00  2.02200695E+00  0.00000000E+00
  0.00000000E+00  2.02200695E+00  0.00000000E+00  0.00000000E+00  2.02200695E+00
  0.00000000E+00  0.00000000E+00  2.02200695E+00  0.00000000E+00  0.00000000E+00
  4.29194597E+00  0.00000000E+00  0.00000000E+00  4.29194597E+00  0.00000000E+00
  0.00000000E+00  4.29194597E+00  0.00000000E+00  0.00000000E+00  4.29194597E+00
  0.00000000E+00  0.00000000E+00  6.31395293E+00  0.00000000E+00  0.00000000E+00
  6.31395293E+00
Num ILSW                                   I              100
ILSW                                       I   N=         100
           0           1           0           0           2           0
           0           0           0           0         402          -1
           5           0           0           0           0           0
           0           0           1           0           0           0
           1           1           0           0           0           0
           0           0      100000           0          -1           0
           0           0           0           0           0           0
           0           0           0           1           0           0
           0 -2000000000           1           0           0           0
           0           0           4          52           0           0
           0           0           5           0           0           0
           0           0           0           0           0           1
           0           0           0           0           0           0
           0           0           0           0           0           0
           0           0           0           0           0           0
           0           0           0           0           0           0
           0           0           0           0
Num RLSW                                   I               52
RLSW                                       R   N=          52
  8.00000000E-01  7.20000000E-01  1.00000000E+00  8.10000000E-01  2.00000000E-01
  0.00000000E+00  0.00000000E+00  1.00000000E+00  0.00000000E+00  0.00000000E+00
  0.00000000E+00  0.00000000E+00  1.00000000E+00  0.00000000E+00  0.00000000E+00
  0.00000000E+00  0.00000000E+00  1.00000000E+00  0.00000000E+00  0.00000000E+00
  0.00000000E+00  0.00000000E+00  1.00000000E+00  0.00000000E+00  0.00000000E+00
  0.00000000E+00  0.00000000E+00  1.00000000E+00  0.00000000E+00  0.00000000E+00
  0.00000000E+00  0.00000000E+00  1.00000000E+00  0.00000000E+00  0.00000000E+00
  0.00000000E+00  0.00000000E+00  0.00000000E+00  1.00000000E+00  1.00000000E+00
  0.00000000E+00  1.00000000E+00  0.00000000E+00  0.00000000E+00  0.00000000E+00
  0.00000000E+00  0.00000000E+00  0.00000000E+00  0.00000000E+00  0.00000000E+00
  0.00000000E+00  0.00000000E+00
MxBond                                     I                2
NBond                                      I   N=           4
           1           2           2           1
IBond                                      I   N=           8
           2           0           1           3           2           4
           3           0
RBond                                      R   N=           8
  1.00000000E+00  0.00000000E+00  1.00000000E+00  3.00000000E+00  3.00000000E+00
  1.00000000E+00  1.00000000E+00  0.00000000E+00
Virial Ratio                               R      2.010210048305500E+00
SCF Energy                                 R     -7.732559979441598E+01
Total Energy                               R     -7.732559979441598E+01
RMS Density                                R      7.619484794312903E-09
Job Status                                 I                1
Nuclear derivative order                   I                0
External E-field                           R   N=          35
  0.00000000E+00  0.00000000E+00  0.00000000E+00  0.00000000E+00  0.00000000E+00
  0.00000000E+00  0.00000000E+00  0.00000000E+00  0.00000000E+00  0.00000000E+00
  0.00000000E+00  0.00000000E+00  0.00000000E+00  0.00000000E+00  0.00000000E+00
  0.00000000E+00  0.00000000E+00  0.00000000E+00  0.00000000E+00  0.00000000E+00
  0.00000000E+00  0.00000000E+00  0.00000000E+00  0.00000000E+00  0.00000000E+00
  0.00000000E+00  0.00000000E+00  0.00000000E+00  0.00000000E+00  0.00000000E+00
  0.00000000E+00  0.00000000E+00  0.00000000E+00  0.00000000E+00  0.00000000E+00
IOpCl                                      I                0
IROHF                                      I                0
Alpha Orbital Energies                     R   N=          34
 -1.01915310E+01 -1.01890435E+01 -7.43149683E-01 -5.63964007E-01 -4.90841483E-01
 -2.82438730E-01 -2.82438730E-01  5.36963359E-02  5.36963359E-02  1.04956066E-01
  1.47857353E-01  4.28448335E-01  4.70673501E-01  5.32337024E-01  5.32337024E-01
  6.55071202E-01  6.55071202E-01  7.46602632E-01  8.22852652E-01  1.02752451E+00
  1.22162536E+00  1.50440376E+00  1.50935781E+00  1.50935781E+00  1.54820332E+00
  1.54820333E+00  1.94585782E+00  1.94585784E+00  2.43183789E+00  2.49183286E+00
  2.49183286E+00  3.19648650E+00  4.13584586E+00  4.32648763E+00
Alpha MO coefficients                      R   N=        1156
 -7.68189812E-04  1.33893850E-03  7.01450009E-01  3.38737701E-02  2.69040805E-16
  3.11138340E-16 -3.56415384E-04 -4.03480113E-03  1.22406895E-16 -3.64463112E-16
  5.34805992E-04 -7.46359984E-03 -7.46359984E-03 -6.12647465E-03 -4.58582663E-17
 -2.99712019E-16 -6.97631101E-16  7.01450008E-01  3.38737700E-02  2.45362609E-16
  1.62697944E-16  3.56415384E-04 -4.03480112E-03  3.24300728E-17  7.80585819E-17
 -5.34805998E-04 -7.46359983E-03 -7.46359983E-03 -6.12647464E-03 -4.26639329E-17
  3.82214489E-16  5.03315905E-16 -7.68189812E-04  1.33893850E-03 -7.98357840E-04
 -3.05394945E-04  7.02279347E-01  3.55552858E-02  5.59854231E-16 -1.02175510E-16
  6.16080300E-04 -1.67355618E-02  2.31951502E-16 -1.44375224E-16 -6.73839900E-03
 -6.99781501E-03 -6.99781501E-03 -6.02056407E-03  4.54662248E-17  3.58688311E-16
 -2.44087050E-16 -7.02279348E-01 -3.55552859E-02  1.95429976E-17 -7.62059036E-17
  6.16080299E-04  1.67355618E-02  3.20285476E-16  9.20290854E-17 -6.73839900E-03
  6.99781502E-03  6.99781502E-03  6.02056408E-03 -2.00178714E-18  4.58634709E-16
 -4.07390552E-16  7.98357841E-04  3.05394944E-04  7.59643418E-02 -9.34422193E-03
 -1.75140904E-01  3.29711629E-01 -2.29768532E-16  8.30922783E-17  1.44351439E-01
  2.56181819E-01 -4.37011635E-17 -1.57271389E-17 -2.56008544E-02 -1.65083580E-02
 -1.65083580E-02  1.48407468E-02  1.34360708E-16 -3.73908367E-17 -1.51825197E-16
 -1.75140904E-01  3.29711629E-01  1.86129277E-16  8.16213214E-17 -1.44351439E-01
  2.56181819E-01  8.96541645E-18  2.94329521E-17  2.56008544E-02 -1.65083580E-02
 -1.65083580E-02  1.48407468E-02 -4.98752388E-17 -9.08861485E-17  6.48281779E-17
  7.59643418E-02 -9.34422193E-03  2.15709124E-01  1.20302836E-01 -1.12231302E-01
  2.27661407E-01 -1.29172419E-16  7.39311588E-17 -2.04491870E-01  2.09085038E-01
 -3.38419549E-16  1.69865194E-16 -6.58027873E-02 -1.15014832E-02 -1.15014832E-02
  2.17822709E-02 -2.87982008E-17 -6.65452853E-17 -9.09452027E-17  1.12231302E-01
 -2.27661407E-01 -3.29592809E-16 -6.87927086E-17 -2.04491870E-01 -2.09085038E-01
 -2.36084360E-17 -5.87231176E-17 -6.58027873E-02  1.15014832E-02  1.15014832E-02
 -2.17822709E-02 -1.25390778E-17 -8.40712355E-17 -5.93069956E-17 -2.15709124E-01
 -1.20302836E-01 -2.23499169E-01 -1.89860028E-01 -3.93093437E-03 -3.14692798E-03
 -1.88304799E-16  9.87480253E-17  3.92035540E-01 -9.44713913E-03  2.15867290E-16
  5.88851652E-17  6.17192780E-02 -1.51435501E-03 -1.51435501E-03 -1.19055123E-02
  7.74690996E-17 -6.71333437E-17  2.19490636E-17 -3.93093437E-03 -3.14692799E-03
  1.12861041E-16  2.59414659E-16 -3.92035540E-01 -9.44713914E-03 -1.87253915E-16
 -3.52649433E-17 -6.17192780E-02 -1.51435501E-03 -1.51435501E-03 -1.19055123E-02
  1.20131813E-16  9.08707773E-17  2.52216806E-17 -2.23499169E-01 -1.89860028E-01
 -1.25181530E-16 -1.30419818E-15  6.65516094E-18 -1.30689346E-16  2.21646271E-01
  3.55669057E-01 -1.88099848E-17 -3.24622545E-15  1.34209941E-01  2.15362627E-01
 -3.15199710E-15  4.68831483E-17  1.47184979E-16 -8.54791032E-17 -6.07762993E-17
  8.72852461E-03  1.40063990E-02  1.01156441E-16 -7.55478462E-16  2.21646271E-01
  3.55669057E-01  1.70957803E-16  3.52095131E-15  1.34209941E-01  2.15362627E-01
 -3.19569047E-15  2.47539084E-17  1.42615702E-16  1.43559401E-16 -5.16786088E-17
 -8.72852461E-03 -1.40063990E-02  5.13561986E-17  1.47697376E-15  9.41900643E-17
  7.09247264E-15 -2.28829671E-16 -1.16960660E-15  3.55669057E-01 -2.21646271E-01
 -9.08900462E-17  2.46388827E-14  2.15362627E-01 -1.34209941E-01  1.89674760E-14
 -9.99664403E-17 -1.42013618E-16  2.88154378E-16 -1.33722443E-17  1.40063990E-02
 -8.72852461E-03  2.06679644E-16  2.54450176E-16  3.55669057E-01 -2.21646271E-01
 -2.23482022E-16 -2.26643067E-14  2.15362627E-01 -1.34209941E-01  2.01027801E-14
  2.07366792E-16  1.14834483E-16 -1.88684002E-16 -8.04645611E-17 -1.40063990E-02
  8.72852461E-03 -5.74520597E-16 -8.38749364E-15 -2.13629170E-16 -1.36384646E-15
 -5.81610340E-17 -4.60747234E-17 -1.55831627E-01  3.82285866E-01 -9.52164015E-17
  1.41366080E-16 -2.67922694E-01  6.57267470E-01 -1.22105021E-15 -2.75533016E-17
  4.61420070E-17 -3.33931321E-17 -1.97144266E-17  1.29795366E-02 -3.18413758E-02
  3.56767039E-17 -2.47470389E-16  1.55831627E-01 -3.82285866E-01  1.01681326E-16
  9.19351662E-16  2.67922694E-01 -6.57267470E-01 -8.30120519E-16 -1.54602556E-17
 -4.64261920E-17 -3.69803214E-17 -2.21644565E-16  1.29795366E-02 -3.18413758E-02
  5.53768454E-17  5.27912653E-16 -1.53393679E-16 -1.53553558E-15 -4.63059662E-17
  2.68206293E-16  3.82285866E-01  1.55831627E-01  4.01728448E-17 -3.78389463E-15
  6.57267470E-01  2.67922694E-01 -3.12964452E-15  7.10353722E-17  6.27682638E-17
 -5.27178860E-17 -6.39994529E-17 -3.18413758E-02 -1.29795366E-02  6.80676702E-17
 -2.49785139E-16 -3.82285866E-01 -1.55831627E-01 -7.41910550E-17  2.50476311E-15
 -6.57267470E-01 -2.67922694E-01 -4.09870640E-15 -6.54512664E-17 -4.18056922E-17
  8.58117937E-17  1.52228476E-16 -3.18413758E-02 -1.29795366E-02  2.78965006E-16
  2.97632455E-15  1.33853401E-01  1.77362691E+00  1.01628837E-01 -2.37916144E-01
  1.63122401E-16  5.10181597E-16  9.35143617E-02  3.35489462E-01  4.83848524E-16
  3.01499410E-16  1.62212279E+00 -7.02488667E-03 -7.02488667E-03  2.73157514E-02
 -1.25288869E-16 -3.99397167E-17 -8.82885705E-17 -1.01628837E-01  2.37916144E-01
 -1.64498913E-16 -4.07592616E-16  9.35143617E-02 -3.35489462E-01 -4.51718796E-16
 -5.34436057E-16  1.62212279E+00  7.02488667E-03  7.02488667E-03 -2.73157514E-02
  3.66260575E-16 -2.21555330E-17 -6.07075016E-17 -1.33853401E-01 -1.77362691E+00
  6.90336017E-02  1.59329349E+00  4.90155196E-02 -3.13355186E-02 -7.03923488E-16
  1.22269592E-16  3.12843370E-01 -1.28226565E+00 -2.20585302E-16  2.86382565E-16
  7.40731046E-01 -4.00887067E-04 -4.00887067E-04  1.11964634E-02  2.39326841E-17
  7.68567332E-17 -5.63015555E-18  4.90155196E-02 -3.13355186E-02  5.79929118E-16
 -1.63075705E-16 -3.12843370E-01 -1.28226565E+00  3.14975090E-16 -1.22774424E-16
 -7.40731046E-01 -4.00887067E-04 -4.00887067E-04  1.11964634E-02  5.60200772E-17
  1.30986847E-16  1.18472629E-16  6.90336017E-02  1.59329349E+00 -3.91959956E-01
  2.25827128E+00 -1.12136826E-01 -5.95889535E-02  2.98658166E-15  1.01988072E-14
  2.21077026E-01  6.38091483E+00 -5.42436308E-16 -1.30382833E-14  4.96529805E+00
  5.42655911E-03  5.42655911E-03 -7.64070803E-02  7.59602711E-17  3.24770373E-16
 -2.79062317E-17  1.12136826E-01  5.95889535E-02  1.75330478E-15 -3.84070394E-15
  2.21077026E-01 -6.38091483E+00 -2.11591973E-15  5.90502943E-15  4.96529805E+00
 -5.42655911E-03 -5.42655911E-03  7.64070803E-02  1.89259563E-16 -5.79686657E-16
 -5.47965958E-16  3.91959956E-01 -2.25827128E+00  3.87960513E-01 -6.74521327E-01
  5.81287181E-03  7.09026783E-01  6.51000676E-15  9.29965918E-15  1.88913239E-01
 -3.31306737E-01 -6.49914509E-15 -9.52691984E-15 -6.01236078E-01  1.93927729E-02
  1.93927729E-02  1.14986000E-01  2.44587462E-17  4.74251567E-16  6.37567217E-16
  5.81287181E-03  7.09026783E-01  5.59993335E-15  4.89605194E-15 -1.88913239E-01
 -3.31306737E-01 -5.08388534E-15 -3.99335973E-15  6.01236078E-01  1.93927729E-02
  1.93927729E-02  1.14986000E-01  1.03844767E-16 -6.70096694E-16 -4.88540174E-16
  3.87960513E-01 -6.74521327E-01 -1.43526118E-15  2.30499361E-16 -6.80290884E-17
 -6.60058789E-16  5.47415120E-01 -4.28935216E-01  5.65323349E-16 -8.09223909E-15
 -5.11090503E-01  4.00472525E-01 -5.31346290E-15  1.34921065E-16  6.11447087E-17
 -5.98496917E-16  6.92289568E-16  4.76113064E-02 -3.73065435E-02 -3.99373888E-18
  1.31901614E-15  5.47415120E-01 -4.28935216E-01  2.32680118E-15  3.29931750E-15
 -5.11090503E-01  4.00472525E-01 -1.06778149E-14  3.20020524E-16 -3.01869144E-16
  3.63090204E-16  4.03657738E-16 -4.76113064E-02  3.73065435E-02  4.78196848E-16
  5.27988634E-15 -8.71874118E-16  8.45583038E-15  4.59920297E-16 -8.33049933E-15
  4.28935216E-01  5.47415120E-01 -6.78065948E-15 -1.09805537E-14 -4.00472525E-01
 -5.11090503E-01  9.04120877E-15 -2.19552352E-16 -1.04524852E-15 -2.54765224E-16
 -4.36018822E-16  3.73065435E-02  4.76113064E-02 -6.71884416E-16 -1.03852356E-14
  4.28935216E-01  5.47415120E-01  5.61887021E-16  1.18708803E-14 -4.00472525E-01
 -5.11090503E-01 -1.70601266E-14  2.64222616E-16 -1.94109532E-16 -3.17489265E-15
 -2.46006610E-16 -3.73065435E-02 -4.76113064E-02 -8.94269270E-15  1.80537785E-14
 -4.24188571E-15 -1.37238864E-14 -1.11634435E-16  1.67877515E-15 -7.51829655E-01
 -2.68177938E-01  1.82765489E-15 -8.08958807E-14  1.13674207E+00  4.05476351E-01
 -5.43155087E-14  1.19348767E-15  7.44842974E-16 -2.23383404E-15  3.43494332E-16
  3.75765648E-02  1.34035757E-02 -9.93445457E-17  5.89071980E-15  7.51829655E-01
  2.68177938E-01  1.01920143E-14  5.02804056E-14 -1.13674207E+00 -4.05476351E-01
 -8.31590341E-14  7.70181731E-18  2.31687738E-16  3.30800484E-15 -1.00433249E-16
  3.75765648E-02  1.34035757E-02  6.87176249E-15  3.55991162E-14 -1.30346886E-14
 -8.25254799E-14  1.97792038E-16 -1.24259501E-14  2.68177938E-01 -7.51829655E-01
  2.15109391E-14 -1.43454919E-13 -4.05476351E-01  1.13674207E+00 -1.96761573E-13
  3.94681737E-16  7.74533927E-16 -7.62964908E-15  4.88697717E-16 -1.34035757E-02
  3.75765648E-02  1.12608621E-16  7.01493384E-15 -2.68177938E-01  7.51829655E-01
  9.90775345E-15  1.79121360E-13  4.05476351E-01 -1.13674207E+00 -1.58768597E-13
 -2.11229444E-15 -1.32974779E-15  7.73547162E-15  6.75362573E-16 -1.34035757E-02
  3.75765648E-02  1.58410774E-14  4.77741728E-14  1.82085711E-01  2.69151136E+00
 -2.87617619E-02  6.35936058E-01  6.75757051E-16 -3.06749748E-14 -4.43223186E-01
  4.67760236E+00  1.05805398E-15  4.44827722E-14  5.89708556E+00  1.12410546E-02
  1.12410546E-02  1.88226889E-01 -8.34767744E-16 -4.47652759E-18  1.11243229E-15
  2.87617619E-02 -6.35936058E-01 -4.08296764E-16  2.24118059E-14 -4.43223186E-01
 -4.67760236E+00  3.31459148E-16 -3.83112431E-14  5.89708556E+00 -1.12410546E-02
 -1.12410546E-02 -1.88226889E-01 -1.95781369E-16 -5.27183545E-16  2.22885888E-15
 -1.82085711E-01 -2.69151136E+00  1.27983711E-01 -2.09812767E+00  1.84586134E-02
 -6.40903341E-01 -6.40123285E-15  5.38562429E-15  6.42784843E-01  2.43134157E+00
  1.17757304E-14 -7.61560325E-15 -2.16244620E+00 -6.82622228E-02 -6.82622228E-02
 -1.17953530E-02 -1.40461794E-15  1.13293207E-16 -1.33088499E-16  1.84586134E-02
 -6.40903341E-01  1.00471135E-14 -4.98891097E-15 -6.42784843E-01  2.43134157E+00
 -1.46221915E-14  7.04942429E-15  2.16244620E+00 -6.82622228E-02 -6.82622228E-02
 -1.17953530E-02  1.51592948E-16 -1.10844751E-15 -5.57595875E-16  1.27983711E-01
 -2.09812767E+00  8.54616811E-01  3.24791080E-01  1.14182812E-02 -5.80854519E-01
  1.85395308E-15 -1.05202273E-15 -1.18651267E-01 -4.28672773E-01 -3.93174103E-15
  1.84045971E-16  1.38676375E+00 -4.91267015E-02 -4.91267015E-02  4.16700834E-02
 -9.94818557E-17 -7.56565901E-16 -6.23722923E-16  1.14182812E-02 -5.80854519E-01
 -2.56035741E-15 -5.73606549E-16  1.18651267E-01 -4.28672773E-01  4.64102779E-15
  1.58581832E-15 -1.38676375E+00 -4.91267015E-02 -4.91267015E-02  4.16700834E-02
 -4.41205262E-16  6.36031769E-16 -2.74546334E-16  8.54616811E-01  3.24791080E-01
 -6.13077834E-01  6.24606997E-01  2.38843382E-02 -7.46622127E-01 -1.20343945E-15
 -3.18052543E-15 -8.68638415E-01  2.26352917E+00  1.18220417E-15  3.33340216E-15
  1.36056508E+00 -9.66243649E-02 -9.66243649E-02  1.73840981E-01 -2.50124056E-15
  1.34489882E-15  6.53415492E-16 -2.38843382E-02  7.46622127E-01  1.44593605E-17
  1.12908485E-15 -8.68638415E-01 -2.26352917E+00 -6.15218546E-16 -2.48248383E-15
  1.36056508E+00  9.66243649E-02  9.66243649E-02 -1.73840981E-01 -2.20540215E-15
 -2.29867324E-15 -3.13348397E-16  6.13077834E-01 -6.24606997E-01  7.84049013E-01
  2.59664273E+00 -4.74231997E-02 -1.31020840E+00 -2.70292203E-13 -6.89470737E-15
  8.05323489E-02  1.48132797E+01  8.66165652E-14  2.13407835E-14  1.03081545E+01
 -1.00974581E-01 -1.00974581E-01  2.83394051E-01 -2.31672102E-14  7.20983953E-13
 -2.33403681E-14  4.74231997E-02  1.31020840E+00 -2.68510307E-13  1.85453888E-14
  8.05323489E-02 -1.48132797E+01  8.15007461E-14 -2.43186849E-14  1.03081545E+01
  1.00974581E-01  1.00974581E-01 -2.83394051E-01 -1.55576558E-14 -7.29496063E-13
  2.68373886E-14 -7.84049013E-01 -2.59664273E+00 -9.32488170E-13 -3.10469464E-12
  5.70110769E-14  1.56611180E-12 -2.24651473E-01  2.52762927E-02 -9.36594694E-14
 -1.77144888E-11  6.86277594E-02 -7.72154000E-03 -1.23215058E-11  8.85927153E-14
  1.53700185E-13 -3.38158866E-13  7.50352780E-15  6.04107139E-01 -6.79701258E-02
 -5.64037450E-14 -1.56782585E-12 -2.24651473E-01  2.52762927E-02 -9.18761910E-14
  1.77050978E-11  6.86277594E-02 -7.72154000E-03 -1.23318472E-11 -1.53177356E-13
 -8.68785936E-14  3.38959178E-13  4.20193234E-15 -6.04107139E-01  6.79701258E-02
  9.35123743E-13  3.11327595E-12 -7.14171327E-14 -2.37229290E-13  4.32323096E-15
  1.24111907E-13 -2.52762927E-02 -2.24651473E-01 -7.88082174E-15 -1.38229860E-12
  7.72154000E-03  6.86277594E-02 -9.54153535E-13  1.78816998E-15  1.57818173E-14
 -2.77718621E-14 -2.51631081E-14  6.79701258E-02  6.04107139E-01 -4.28705405E-15
 -1.22662186E-13 -2.52762927E-02 -2.24651473E-01 -6.77732383E-15  1.37572407E-12
  7.72154000E-03  6.86277594E-02 -9.60695545E-13 -1.72387483E-14 -3.14958028E-15
  2.77641501E-14 -2.37974380E-14 -6.79701258E-02 -6.04107139E-01  7.18091041E-14
  2.44170630E-13 -4.69704631E-14 -1.62370558E-13  2.41203635E-15  7.84931673E-14
 -1.38447631E-14 -2.38082143E-15  5.13791779E-16 -8.49912677E-13  4.39003462E-15
  1.52807863E-15 -6.14011467E-13  5.76755797E-01 -5.76755797E-01 -1.59382797E-14
  5.04331103E-08  3.67835453E-14  3.13410254E-15 -3.37453389E-15 -7.06771752E-14
 -1.46286768E-14 -1.07600838E-15 -1.98163296E-15  8.65020389E-13  4.70554931E-15
 -1.24918981E-16 -5.93466595E-13  5.76755797E-01 -5.76755797E-01  1.46686324E-14
  5.04331116E-08 -3.53598519E-14 -3.81188623E-15  4.05063202E-14  1.49766253E-13
  2.15678041E-14  8.01270345E-14 -1.20186623E-15 -4.53101031E-14  2.57762445E-16
 -6.62747573E-15 -1.46308138E-15  4.65373009E-13  7.59729849E-16 -2.56070877E-16
  3.20427647E-13 -4.36763572E-08  4.36763522E-08  1.02480074E-14  6.65980230E-01
 -2.56463086E-15  2.19336378E-14  1.75932087E-15  3.71483361E-14  7.58607853E-16
 -8.52541858E-15 -2.64720162E-15 -4.56770279E-13 -1.26756356E-15  3.61808859E-15
  3.26653143E-13 -4.36763520E-08  4.36763605E-08 -6.75823267E-15  6.65980230E-01
  3.16577405E-15 -2.46471186E-14 -2.12149061E-14 -8.82613052E-14  4.84913952E-14
  2.26732506E-13 -3.27925474E-15 -8.86821542E-14  9.43502498E-16 -1.98466815E-16
 -1.37272813E-15  1.07840777E-12 -7.90824054E-16 -3.88747076E-16  7.91584639E-13
  6.55523400E-01 -6.55523400E-01  2.31044507E-14 -3.39556522E-08  1.28348682E-16
 -1.04694624E-15  2.70923248E-15  8.88155007E-14 -2.95319609E-16 -8.57127280E-16
 -2.79327637E-15 -1.07483526E-12  3.48771343E-16  1.57385873E-15  7.88848525E-13
 -6.55523400E-01  6.55523400E-01 -2.53674091E-14  3.39556508E-08  7.63222151E-16
 -8.11151814E-16 -4.57271202E-14 -2.27805287E-13  4.63154878E-15  1.75092190E-14
 -4.04943237E-16 -1.04248462E-14  1.01824991E-15  7.08149374E-16  7.17448831E-16
  1.11161556E-13 -1.11652892E-15  1.28710413E-15  7.20866145E-14  2.94064566E-08
 -2.94064585E-08  3.04509587E-15  7.56933222E-01 -2.45038944E-15  2.83291254E-15
  5.32820279E-16  5.18642535E-15  2.02517290E-17 -7.21257359E-16 -1.13230351E-15
 -1.00253365E-13  9.60056162E-16 -1.72078134E-15  8.15624394E-14 -2.94064555E-08
  2.94064571E-08 -1.63546222E-17 -7.56933222E-01  4.93807783E-16  1.69158134E-15
 -5.75608409E-15 -2.62817462E-14  4.58967706E-01 -3.77485191E-01  1.08911888E-01
 -1.24215402E-02  6.64805368E-15  2.11704212E-15  3.53629196E-01 -1.51585042E-01
  7.91080397E-15  2.88676756E-15 -4.47726340E-01  6.15058155E-01  6.15058155E-01
 -5.67171177E-01  9.11192814E-16  2.61343833E-14  9.34709196E-15  1.08911888E-01
 -1.24215402E-02 -6.68353217E-15 -2.20270689E-15 -3.53629196E-01 -1.51585042E-01
 -7.91110552E-15 -2.56015170E-15  4.47726340E-01  6.15058155E-01  6.15058155E-01
 -5.67171177E-01 -5.22368608E-16  2.67713483E-14  8.13281494E-15  4.58967706E-01
 -3.77485191E-01 -4.64690671E-15 -7.77231127E-15 -1.03266953E-15  4.72027021E-15
 -1.38214689E-02  2.52668502E-01 -1.61440804E-15 -3.64208547E-14 -1.67061890E-02
  3.05403698E-01 -2.58403705E-14 -4.71067574E-15 -7.97006466E-15  3.69843026E-15
 -1.12114801E-15 -5.49710396E-02  1.00491853E+00 -6.73165724E-16 -5.29186047E-15
  1.38214689E-02 -2.52668502E-01  4.65322576E-15  3.85014954E-14  1.67061890E-02
 -3.05403698E-01 -3.62850646E-14 -3.61190105E-15 -3.48786973E-15  4.12542159E-15
  3.37835358E-15 -5.49710396E-02  1.00491853E+00 -5.99203092E-16  1.35912053E-14
 -9.94069999E-15  2.60941053E-14 -3.26394527E-15 -9.44769141E-15  2.52668502E-01
  1.38214689E-02 -4.23390039E-15  1.31678949E-13  3.05403698E-01  1.67061890E-02
  8.97959518E-14 -2.02041087E-14 -1.83480234E-14  2.45845609E-14  5.58875230E-16
  1.00491853E+00  5.49710396E-02 -2.04151891E-15  1.90226998E-15 -2.52668502E-01
 -1.38214689E-02  1.30436256E-14 -1.08681383E-13 -3.05403698E-01 -1.67061890E-02
  7.82199348E-14 -1.28768335E-14 -1.20995431E-14  9.39444878E-15 -1.01424125E-15
  1.00491853E+00  5.49710396E-02 -1.54198500E-14 -1.99344671E-14 -4.21671601E-01
  5.03860236E-01 -6.62261483E-02  1.15586841E+00 -5.01195143E-16 -1.63112823E-15
  1.06293508E+00  2.45859215E+00 -1.23968603E-15  5.23276392E-16  1.43854550E+00
 -7.98606865E-01 -7.98606865E-01  1.10982777E+00  5.18995436E-16 -5.53477695E-15
 -1.45635721E-15  6.62261483E-02 -1.15586841E+00  1.38935533E-16  5.61648590E-16
  1.06293508E+00 -2.45859215E+00  1.92905022E-15  1.35769380E-16  1.43854550E+00
  7.98606865E-01  7.98606865E-01 -1.10982777E+00  4.20488909E-16 -4.59833414E-15
 -2.71932250E-15  4.21671601E-01 -5.03860236E-01  2.77981567E-01 -3.35863484E-01
 -2.91002643E-01  2.42696802E+00 -1.38162888E-15 -2.10250216E-16  1.91020171E-01
  5.87584246E-01  2.07122844E-15 -3.57330850E-16 -1.64228093E-01 -1.16033597E+00
 -1.16033597E+00 -1.45151109E+00  2.58402270E-15  1.85629266E-15 -1.01862122E-15
 -2.91002643E-01  2.42696802E+00 -5.55819852E-16 -1.57609988E-16 -1.91020171E-01
  5.87584246E-01 -1.75700088E-15  6.53987982E-16  1.64228093E-01 -1.16033597E+00
 -1.16033597E+00 -1.45151109E+00  3.87944426E-16  1.19489184E-15  2.58011583E-16
  2.77981567E-01 -3.35863484E-01  4.08993147E-01  1.31115619E-01 -3.71247356E-01
  1.53939752E+00  5.53625100E-16 -2.26695707E-15 -7.82512987E-01  3.80091896E+00
  1.24423261E-15  4.77029510E-15  1.88165470E+00 -1.11841386E+00 -1.11841386E+00
 -2.00062070E+00 -8.54915515E-16  8.69560269E-16 -1.38945291E-15  3.71247356E-01
 -1.53939752E+00 -2.66895409E-16  1.56284035E-15 -7.82512987E-01 -3.80091896E+00