Bn_transform_new_1 0.0                                                  
SP        RB3LYP                                                      6-31G(d)            
Number of atoms                            I               15
Info1-9                                    I   N=           9
          24          24           0           0           0         110
           1          18        -502
Full Title                                 C   N=           2
Bn_transform_new_1 0.0  
Route                                      C   N=           2
# nosymm b3lyp/6-31G*   
Charge                                     I                0
Multiplicity                               I                1
Number of electrons                        I               50
Number of alpha electrons                  I               25
Number of beta electrons                   I               25
Number of basis functions                  I              121
Number of independent functions            I              121
Number of point charges in /Mol/           I                0
Number of translation vectors              I                0
Atomic numbers                             I   N=          15
           1           6           1           1           6           6
           1           6           1           6           1           6
           1           6           1
Nuclear charges                            R   N=          15
  1.00000000E+00  6.00000000E+00  1.00000000E+00  1.00000000E+00  6.00000000E+00
  6.00000000E+00  1.00000000E+00  6.00000000E+00  1.00000000E+00  6.00000000E+00
  1.00000000E+00  6.00000000E+00  1.00000000E+00  6.00000000E+00  1.00000000E+00
Current cartesian coordinates              R   N=          45
  0.00000000E+00  0.00000000E+00  0.00000000E+00  0.00000000E+00  0.00000000E+00
  2.07870322E+00  9.78390413E-01 -1.69532720E+00  2.77791575E+00  9.72515670E-01
  1.69871484E+00  2.77790955E+00 -2.67247255E+00 -4.61076167E-03  3.02357697E+00
 -3.89788210E+00 -2.27832878E+00  3.45821727E+00 -2.94617033E+00 -4.00043854E+00
  3.11807362E+00 -6.35660218E+00 -2.25585979E+00  4.32748632E+00 -7.30229904E+00
 -4.00797313E+00  4.66763581E+00 -7.58981329E+00 -1.31142080E-02  4.76211273E+00
 -9.48727943E+00 -1.63884797E-02  5.42352944E+00 -6.36440376E+00  2.26062269E+00
  4.32747241E+00 -7.31611553E+00  3.98273247E+00  4.66761606E+00 -3.90574229E+00
  2.26487442E+00  3.45820769E+00 -2.95998682E+00  3.99024816E+00  3.11805387E+00
Number of symbols in /Mol/                 I                0
Force Field                                I                0
Atom Types                                 C   N=          15
                                                            
                                                            
                                                            
Int Atom Types                             I   N=          15
           0           0           0           0           0           0
           0           0           0           0           0           0
           0           0           0
MM charges                                 R   N=          15
  0.00000000E+00  0.00000000E+00  0.00000000E+00  0.00000000E+00  0.00000000E+00
  0.00000000E+00  0.00000000E+00  0.00000000E+00  0.00000000E+00  0.00000000E+00
  0.00000000E+00  0.00000000E+00  0.00000000E+00  0.00000000E+00  0.00000000E+00
Integer atomic weights                     I   N=          15
           1          12           1           1          12          12
           1          12           1          12           1          12
           1          12           1
Real atomic weights                        R   N=          15
  1.00782504E+00  1.20000000E+01  1.00782504E+00  1.00782504E+00  1.20000000E+01
  1.20000000E+01  1.00782504E+00  1.20000000E+01  1.00782504E+00  1.20000000E+01
  1.00782504E+00  1.20000000E+01  1.00782504E+00  1.20000000E+01  1.00782504E+00
Atom fragment info                         I   N=          15
           0           0           0           0           0           0
           0           0           0           0           0           0
           0           0           0
Atom residue num                           I   N=          15
           0           0           0           0           0           0
           0           0           0           0           0           0
           0           0           0
Nuclear spins                              I   N=          15
           1           0           1           1           0           0
           1           0           1           0           1           0
           1           0           1
Nuclear ZEff                               R   N=          15
 -1.00000000E+00 -3.60000000E+00 -1.00000000E+00 -1.00000000E+00 -3.60000000E+00
 -3.60000000E+00 -1.00000000E+00 -3.60000000E+00 -1.00000000E+00 -3.60000000E+00
 -1.00000000E+00 -3.60000000E+00 -1.00000000E+00 -3.60000000E+00 -1.00000000E+00
Nuclear ZNuc                               R   N=          15
  1.00000000E+00  6.00000000E+00  1.00000000E+00  1.00000000E+00  6.00000000E+00
  6.00000000E+00  1.00000000E+00  6.00000000E+00  1.00000000E+00  6.00000000E+00
  1.00000000E+00  6.00000000E+00  1.00000000E+00  6.00000000E+00  1.00000000E+00
Nuclear QMom                               R   N=          15
  0.00000000E+00  0.00000000E+00  0.00000000E+00  0.00000000E+00  0.00000000E+00
  0.00000000E+00  0.00000000E+00  0.00000000E+00  0.00000000E+00  0.00000000E+00
  0.00000000E+00  0.00000000E+00  0.00000000E+00  0.00000000E+00  0.00000000E+00
Nuclear GFac                               R   N=          15
  2.79284600E+00  0.00000000E+00  2.79284600E+00  2.79284600E+00  0.00000000E+00
  0.00000000E+00  2.79284600E+00  0.00000000E+00  2.79284600E+00  0.00000000E+00
  2.79284600E+00  0.00000000E+00  2.79284600E+00  0.00000000E+00  2.79284600E+00
MicOpt                                     I   N=          15
          -1          -1          -1          -1          -1          -1
          -1          -1          -1          -1          -1          -1
          -1          -1          -1
Number of residues                         I                0
Number of secondary structures             I                0
Number of contracted shells                I               44
Number of primitive shells                 I              109
Pure/Cartesian d shells                    I                1
Pure/Cartesian f shells                    I                0
Highest angular momentum                   I                2
Largest degree of contraction              I                6
Shell types                                I   N=          44
           0           0           0          -1          -1           2
           0           0           0           0           0          -1
          -1           2           0          -1          -1           2
           0           0           0          -1          -1           2
           0           0           0          -1          -1           2
           0           0           0          -1          -1           2
           0           0           0          -1          -1           2
           0           0
Number of primitives per shell             I   N=          44
           3           1           6           3           1           1
           3           1           3           1           6           3
           1           1           6           3           1           1
           3           1           6           3           1           1
           3           1           6           3           1           1
           3           1           6           3           1           1
           3           1           6           3           1           1
           3           1
Shell to atom map                          I   N=          44
           1           1           2           2           2           2
           3           3           4           4           5           5
           5           5           6           6           6           6
           7           7           8           8           8           8
           9           9          10          10          10          10
          11          11          12          12          12          12
          13          13          14          14          14          14
          15          15
Primitive exponents                        R   N=         109
  1.87311370E+01  2.82539436E+00  6.40121692E-01  1.61277759E-01  3.04752488E+03
  4.57369518E+02  1.03948685E+02  2.92101553E+01  9.28666296E+00  3.16392696E+00
  7.86827235E+00  1.88128854E+00  5.44249258E-01  1.68714478E-01  8.00000000E-01
  1.87311370E+01  2.82539436E+00  6.40121692E-01  1.61277759E-01  1.87311370E+01
  2.82539436E+00  6.40121692E-01  1.61277759E-01  3.04752488E+03  4.57369518E+02
  1.03948685E+02  2.92101553E+01  9.28666296E+00  3.16392696E+00  7.86827235E+00
  1.88128854E+00  5.44249258E-01  1.68714478E-01  8.00000000E-01  3.04752488E+03
  4.57369518E+02  1.03948685E+02  2.92101553E+01  9.28666296E+00  3.16392696E+00
  7.86827235E+00  1.88128854E+00  5.44249258E-01  1.68714478E-01  8.00000000E-01
  1.87311370E+01  2.82539436E+00  6.40121692E-01  1.61277759E-01  3.04752488E+03
  4.57369518E+02  1.03948685E+02  2.92101553E+01  9.28666296E+00  3.16392696E+00
  7.86827235E+00  1.88128854E+00  5.44249258E-01  1.68714478E-01  8.00000000E-01
  1.87311370E+01  2.82539436E+00  6.40121692E-01  1.61277759E-01  3.04752488E+03
  4.57369518E+02  1.03948685E+02  2.92101553E+01  9.28666296E+00  3.16392696E+00
  7.86827235E+00  1.88128854E+00  5.44249258E-01  1.68714478E-01  8.00000000E-01
  1.87311370E+01  2.82539436E+00  6.40121692E-01  1.61277759E-01  3.04752488E+03
  4.57369518E+02  1.03948685E+02  2.92101553E+01  9.28666296E+00  3.16392696E+00
  7.86827235E+00  1.88128854E+00  5.44249258E-01  1.68714478E-01  8.00000000E-01
  1.87311370E+01  2.82539436E+00  6.40121692E-01  1.61277759E-01  3.04752488E+03
  4.57369518E+02  1.03948685E+02  2.92101553E+01  9.28666296E+00  3.16392696E+00
  7.86827235E+00  1.88128854E+00  5.44249258E-01  1.68714478E-01  8.00000000E-01
  1.87311370E+01  2.82539436E+00  6.40121692E-01  1.61277759E-01
Contraction coefficients                   R   N=         109
  3.34946043E-02  2.34726953E-01  8.13757326E-01  1.00000000E+00  1.83473713E-03
  1.40373228E-02  6.88426223E-02  2.32184443E-01  4.67941348E-01  3.62311985E-01
 -1.19332420E-01 -1.60854152E-01  1.14345644E+00  1.00000000E+00  1.00000000E+00
  3.34946043E-02  2.34726953E-01  8.13757326E-01  1.00000000E+00  3.34946043E-02
  2.34726953E-01  8.13757326E-01  1.00000000E+00  1.83473713E-03  1.40373228E-02
  6.88426223E-02  2.32184443E-01  4.67941348E-01  3.62311985E-01 -1.19332420E-01
 -1.60854152E-01  1.14345644E+00  1.00000000E+00  1.00000000E+00  1.83473713E-03
  1.40373228E-02  6.88426223E-02  2.32184443E-01  4.67941348E-01  3.62311985E-01
 -1.19332420E-01 -1.60854152E-01  1.14345644E+00  1.00000000E+00  1.00000000E+00
  3.34946043E-02  2.34726953E-01  8.13757326E-01  1.00000000E+00  1.83473713E-03
  1.40373228E-02  6.88426223E-02  2.32184443E-01  4.67941348E-01  3.62311985E-01
 -1.19332420E-01 -1.60854152E-01  1.14345644E+00  1.00000000E+00  1.00000000E+00
  3.34946043E-02  2.34726953E-01  8.13757326E-01  1.00000000E+00  1.83473713E-03
  1.40373228E-02  6.88426223E-02  2.32184443E-01  4.67941348E-01  3.62311985E-01
 -1.19332420E-01 -1.60854152E-01  1.14345644E+00  1.00000000E+00  1.00000000E+00
  3.34946043E-02  2.34726953E-01  8.13757326E-01  1.00000000E+00  1.83473713E-03
  1.40373228E-02  6.88426223E-02  2.32184443E-01  4.67941348E-01  3.62311985E-01
 -1.19332420E-01 -1.60854152E-01  1.14345644E+00  1.00000000E+00  1.00000000E+00
  3.34946043E-02  2.34726953E-01  8.13757326E-01  1.00000000E+00  1.83473713E-03
  1.40373228E-02  6.88426223E-02  2.32184443E-01  4.67941348E-01  3.62311985E-01
 -1.19332420E-01 -1.60854152E-01  1.14345644E+00  1.00000000E+00  1.00000000E+00
  3.34946043E-02  2.34726953E-01  8.13757326E-01  1.00000000E+00
P(S=P) Contraction coefficients            R   N=         109
  0.00000000E+00  0.00000000E+00  0.00000000E+00  0.00000000E+00  0.00000000E+00
  0.00000000E+00  0.00000000E+00  0.00000000E+00  0.00000000E+00  0.00000000E+00
  6.89990666E-02  3.16423961E-01  7.44308291E-01  1.00000000E+00  0.00000000E+00
  0.00000000E+00  0.00000000E+00  0.00000000E+00  0.00000000E+00  0.00000000E+00
  0.00000000E+00  0.00000000E+00  0.00000000E+00  0.00000000E+00  0.00000000E+00
  0.00000000E+00  0.00000000E+00  0.00000000E+00  0.00000000E+00  6.89990666E-02
  3.16423961E-01  7.44308291E-01  1.00000000E+00  0.00000000E+00  0.00000000E+00
  0.00000000E+00  0.00000000E+00  0.00000000E+00  0.00000000E+00  0.00000000E+00
  6.89990666E-02  3.16423961E-01  7.44308291E-01  1.00000000E+00  0.00000000E+00
  0.00000000E+00  0.00000000E+00  0.00000000E+00  0.00000000E+00  0.00000000E+00
  0.00000000E+00  0.00000000E+00  0.00000000E+00  0.00000000E+00  0.00000000E+00
  6.89990666E-02  3.16423961E-01  7.44308291E-01  1.00000000E+00  0.00000000E+00
  0.00000000E+00  0.00000000E+00  0.00000000E+00  0.00000000E+00  0.00000000E+00
  0.00000000E+00  0.00000000E+00  0.00000000E+00  0.00000000E+00  0.00000000E+00
  6.89990666E-02  3.16423961E-01  7.44308291E-01  1.00000000E+00  0.00000000E+00
  0.00000000E+00  0.00000000E+00  0.00000000E+00  0.00000000E+00  0.00000000E+00
  0.00000000E+00  0.00000000E+00  0.00000000E+00  0.00000000E+00  0.00000000E+00
  6.89990666E-02  3.16423961E-01  7.44308291E-01  1.00000000E+00  0.00000000E+00
  0.00000000E+00  0.00000000E+00  0.00000000E+00  0.00000000E+00  0.00000000E+00
  0.00000000E+00  0.00000000E+00  0.00000000E+00  0.00000000E+00  0.00000000E+00
  6.89990666E-02  3.16423961E-01  7.44308291E-01  1.00000000E+00  0.00000000E+00
  0.00000000E+00  0.00000000E+00  0.00000000E+00  0.00000000E+00
Coordinates of each shell                  R   N=         132
  0.00000000E+00  0.00000000E+00  0.00000000E+00  0.00000000E+00  0.00000000E+00
  0.00000000E+00  0.00000000E+00  0.00000000E+00  2.07870322E+00  0.00000000E+00
  0.00000000E+00  2.07870322E+00  0.00000000E+00  0.00000000E+00  2.07870322E+00
  0.00000000E+00  0.00000000E+00  2.07870322E+00  9.78390413E-01 -1.69532720E+00
  2.77791575E+00  9.78390413E-01 -1.69532720E+00  2.77791575E+00  9.72515670E-01
  1.69871484E+00  2.77790955E+00  9.72515670E-01  1.69871484E+00  2.77790955E+00
 -2.67247255E+00 -4.61076167E-03  3.02357697E+00 -2.67247255E+00 -4.61076167E-03
  3.02357697E+00 -2.67247255E+00 -4.61076167E-03  3.02357697E+00 -2.67247255E+00
 -4.61076167E-03  3.02357697E+00 -3.89788210E+00 -2.27832878E+00  3.45821727E+00
 -3.89788210E+00 -2.27832878E+00  3.45821727E+00 -3.89788210E+00 -2.27832878E+00
  3.45821727E+00 -3.89788210E+00 -2.27832878E+00  3.45821727E+00 -2.94617033E+00
 -4.00043854E+00  3.11807362E+00 -2.94617033E+00 -4.00043854E+00  3.11807362E+00
 -6.35660218E+00 -2.25585979E+00  4.32748632E+00 -6.35660218E+00 -2.25585979E+00
  4.32748632E+00 -6.35660218E+00 -2.25585979E+00  4.32748632E+00 -6.35660218E+00
 -2.25585979E+00  4.32748632E+00 -7.30229904E+00 -4.00797313E+00  4.66763581E+00
 -7.30229904E+00 -4.00797313E+00  4.66763581E+00 -7.58981329E+00 -1.31142080E-02
  4.76211273E+00 -7.58981329E+00 -1.31142080E-02  4.76211273E+00 -7.58981329E+00
 -1.31142080E-02  4.76211273E+00 -7.58981329E+00 -1.31142080E-02  4.76211273E+00
 -9.48727943E+00 -1.63884797E-02  5.42352944E+00 -9.48727943E+00 -1.63884797E-02
  5.42352944E+00 -6.36440376E+00  2.26062269E+00  4.32747241E+00 -6.36440376E+00
  2.26062269E+00  4.32747241E+00 -6.36440376E+00  2.26062269E+00  4.32747241E+00
 -6.36440376E+00  2.26062269E+00  4.32747241E+00 -7.31611553E+00  3.98273247E+00
  4.66761606E+00 -7.31611553E+00  3.98273247E+00  4.66761606E+00 -3.90574229E+00
  2.26487442E+00  3.45820769E+00 -3.90574229E+00  2.26487442E+00  3.45820769E+00
 -3.90574229E+00  2.26487442E+00  3.45820769E+00 -3.90574229E+00  2.26487442E+00
  3.45820769E+00 -2.95998682E+00  3.99024816E+00  3.11805387E+00 -2.95998682E+00
  3.99024816E+00  3.11805387E+00
Num ILSW                                   I              100
ILSW                                       I   N=         100
           0           1           0           0           2           0
           0           0           0           0         402          -1
           5           0           0           0           0           0
           0           0           1           0           0           0
           1           1           0           0           0           0
           0           0      100000           0          -1           0
           0           0           0           0           0           0
           0           0           0           1           0           0
           0 -2000000000           1           0           0           0
           0           0           4          52           0           0
           0           0           5           0           0           0
           0           0           0           0           0           1
           0           0           0           0           0           0
           0           0           0           0           0           0
           0           0           0           0           0           0
           0           0           0           0           0           0
           0           0           0           0
Num RLSW                                   I               52
RLSW                                       R   N=          52
  8.00000000E-01  7.20000000E-01  1.00000000E+00  8.10000000E-01  2.00000000E-01
  0.00000000E+00  0.00000000E+00  1.00000000E+00  0.00000000E+00  0.00000000E+00
  0.00000000E+00  0.00000000E+00  1.00000000E+00  0.00000000E+00  0.00000000E+00
  0.00000000E+00  0.00000000E+00  1.00000000E+00  0.00000000E+00  0.00000000E+00
  0.00000000E+00  0.00000000E+00  1.00000000E+00  0.00000000E+00  0.00000000E+00
  0.00000000E+00  0.00000000E+00  1.00000000E+00  0.00000000E+00  0.00000000E+00
  0.00000000E+00  0.00000000E+00  1.00000000E+00  0.00000000E+00  0.00000000E+00
  0.00000000E+00  0.00000000E+00  0.00000000E+00  1.00000000E+00  1.00000000E+00
  0.00000000E+00  1.00000000E+00  0.00000000E+00  0.00000000E+00  0.00000000E+00
  0.00000000E+00  0.00000000E+00  0.00000000E+00  0.00000000E+00  0.00000000E+00
  0.00000000E+00  0.00000000E+00
MxBond                                     I                4
NBond                                      I   N=          15
           1           4           1           1           3           3
           1           3           1           3           1           3
           1           3           1
IBond                                      I   N=          60
           2           0           0           0           1           3
           4           5           2           0           0           0
           2           0           0           0           2           6
          14           0           5           7           8           0
           6           0           0           0           6           9
          10           0           8           0           0           0
           8          11          12           0          10           0
           0           0          10          13          14           0
          12           0           0           0           5          12
          15           0          14           0           0           0
RBond                                      R   N=          60
  1.00000000E+00  0.00000000E+00  0.00000000E+00  0.00000000E+00  1.00000000E+00
  1.00000000E+00  1.00000000E+00  1.00000000E+00  1.00000000E+00  0.00000000E+00
  0.00000000E+00  0.00000000E+00  1.00000000E+00  0.00000000E+00  0.00000000E+00
  0.00000000E+00  1.00000000E+00  1.50000000E+00  1.50000000E+00  0.00000000E+00
  1.50000000E+00  1.00000000E+00  1.50000000E+00  0.00000000E+00  1.00000000E+00
  0.00000000E+00  0.00000000E+00  0.00000000E+00  1.50000000E+00  1.00000000E+00
  1.50000000E+00  0.00000000E+00  1.00000000E+00  0.00000000E+00  0.00000000E+00
  0.00000000E+00  1.50000000E+00  1.00000000E+00  1.50000000E+00  0.00000000E+00
  1.00000000E+00  0.00000000E+00  0.00000000E+00  0.00000000E+00  1.50000000E+00
  1.00000000E+00  1.50000000E+00  0.00000000E+00  1.00000000E+00  0.00000000E+00
  0.00000000E+00  0.00000000E+00  1.50000000E+00  1.50000000E+00  1.00000000E+00
  0.00000000E+00  1.00000000E+00  0.00000000E+00  0.00000000E+00  0.00000000E+00
Virial Ratio                               R      2.008386764365225E+00
SCF Energy                                 R     -2.715612103104750E+02
Total Energy                               R     -2.715612103104750E+02
RMS Density                                R      6.432260410551540E-09
Job Status                                 I                1
Nuclear derivative order                   I                0
External E-field                           R   N=          35
  0.00000000E+00  0.00000000E+00  0.00000000E+00  0.00000000E+00  0.00000000E+00
  0.00000000E+00  0.00000000E+00  0.00000000E+00  0.00000000E+00  0.00000000E+00
  0.00000000E+00  0.00000000E+00  0.00000000E+00  0.00000000E+00  0.00000000E+00
  0.00000000E+00  0.00000000E+00  0.00000000E+00  0.00000000E+00  0.00000000E+00
  0.00000000E+00  0.00000000E+00  0.00000000E+00  0.00000000E+00  0.00000000E+00
  0.00000000E+00  0.00000000E+00  0.00000000E+00  0.00000000E+00  0.00000000E+00
  0.00000000E+00  0.00000000E+00  0.00000000E+00  0.00000000E+00  0.00000000E+00
IOpCl                                      I                0
IROHF                                      I                0
Alpha Orbital Energies                     R   N=         121
 -1.01852544E+01 -1.01793443E+01 -1.01771546E+01 -1.01769739E+01 -1.01744804E+01
 -1.01738427E+01 -1.01738263E+01 -8.54973414E-01 -7.68706651E-01 -7.43133174E-01
 -6.79270617E-01 -6.04440536E-01 -5.78705038E-01 -5.10999156E-01 -4.55395480E-01
 -4.52993624E-01 -4.20348374E-01 -4.20069096E-01 -4.00189656E-01 -3.80889490E-01
 -3.50828864E-01 -3.36629525E-01 -3.31808939E-01 -2.45678613E-01 -2.34987235E-01
  7.77061615E-03  1.17733957E-02  1.01237078E-01  1.23592341E-01  1.42500232E-01
  1.50614991E-01  1.72679922E-01  1.76802136E-01  1.95608251E-01  1.99371289E-01
  2.14721548E-01  2.47069788E-01  3.17616995E-01  3.28749074E-01  3.39657998E-01
  3.56450045E-01  4.58496557E-01  5.23974054E-01  5.28391493E-01  5.54101224E-01
  5.60896632E-01  5.69004817E-01  5.85162632E-01  6.05996969E-01  6.07614533E-01
  6.27235238E-01  6.28339769E-01  6.41468487E-01  6.56680491E-01  6.64174444E-01
  7.12610491E-01  7.32915813E-01  7.55571046E-01  7.77050066E-01  8.47539372E-01
  8.59172614E-01  8.62101209E-01  8.86642938E-01  8.87852391E-01  9.09537384E-01
  9.39391217E-01  9.47245992E-01  9.65177534E-01  9.76212975E-01  1.01751704E+00
  1.09705802E+00  1.12607595E+00  1.15050321E+00  1.19833558E+00  1.21452642E+00
  1.26651216E+00  1.37354305E+00  1.38423860E+00  1.45082877E+00  1.46314897E+00
  1.48271491E+00  1.49161074E+00  1.50446774E+00  1.51851079E+00  1.81302830E+00
  1.81980288E+00  1.86520197E+00  1.91161885E+00  1.91729093E+00  1.92864960E+00
  1.96019255E+00  2.01529306E+00  2.09007078E+00  2.10463677E+00  2.13999800E+00
  2.16003112E+00  2.18574228E+00  2.20768356E+00  2.27420476E+00  2.28730393E+00
  2.32899385E+00  2.35628442E+00  2.37208851E+00  2.42768229E+00  2.59613844E+00
  2.60162037E+00  2.69588698E+00  2.74913859E+00  2.76129988E+00  2.77122449E+00
  2.81739319E+00  2.89023835E+00  3.07593598E+00  3.48065794E+00  4.11636160E+00
  4.13197885E+00  4.13477855E+00  4.23764873E+00  4.34331164E+00  4.40454475E+00
  4.71878460E+00
Alpha MO coefficients                      R   N=       14641
 -1.56473968E-04  7.74263050E-04  2.20057919E-02  1.02028457E-03  2.57233274E-04
  5.23972245E-07 -1.81598303E-04  1.85207790E-03 -1.11241374E-03  1.95499705E-06
  9.28422206E-04 -6.38246450E-04 -3.11096505E-04 -2.77708770E-04 -1.04647738E-06
  1.72854477E-04  6.10876860E-07 -9.79115939E-05 -1.13971552E-05 -9.83147747E-05
 -1.32416688E-05  9.91906707E-01  4.98028593E-02 -4.97184827E-05  7.61069638E-06
  1.31398941E-05 -1.95118242E-02  2.57893685E-03 -1.55583357E-05 -1.03508205E-03
 -9.25597580E-03 -9.00705735E-03 -9.41489045E-03 -7.89993852E-07 -9.85033552E-05
 -6.76582445E-08  2.55003984E-02  6.77950915E-04 -1.30861007E-04 -3.40321320E-04
  4.45275214E-05  7.58040635E-03 -1.70956846E-04  3.64255995E-03  9.23584562E-05
 -5.49370510E-04 -6.22409979E-04 -4.53734711E-04 -1.20584620E-04  4.34843205E-05
  4.87127400E-05 -2.60998512E-06  5.70155199E-04  9.38382789E-04  1.16539459E-04
 -2.22431524E-05  7.95735623E-07  6.41191707E-06 -3.51868219E-03 -8.48388439E-04
 -1.89531627E-03  2.94780393E-04  7.79844707E-05  2.33383273E-05  3.30719308E-05
  3.05417668E-05 -2.24813520E-05 -1.03031217E-05 -6.56189892E-05 -3.95222064E-04
 -3.30287428E-04 -2.45570918E-04 -2.47914742E-05 -8.71171703E-07  6.66597693E-06
  3.54442927E-03  1.97172328E-03  5.20309660E-06 -6.87972834E-04 -1.44500715E-05
  1.24366341E-05 -7.36855641E-05 -1.63898535E-07 -2.73389100E-05  7.18799789E-09
  5.06690818E-05  5.33860299E-04  9.59559363E-04  1.20107235E-04 -2.22613825E-05
 -3.23794873E-07  6.45620739E-06 -3.45472906E-03 -8.63318515E-04  1.91634083E-03
  2.97565266E-04  7.77382801E-05  2.26026894E-05  3.27560338E-05 -2.95406102E-05
 -2.25390073E-05  1.00166807E-05 -6.88672079E-05 -4.24738349E-04  2.54693556E-02
  6.76791360E-04 -1.34243084E-04  3.42150170E-04  4.52379913E-05  7.61340390E-03
 -1.45488845E-04 -3.64614643E-03  8.80635966E-05 -5.50717157E-04 -6.23835787E-04
 -4.53816567E-04  1.22042996E-04  4.38768242E-05 -4.89701785E-05 -3.60020965E-06
  5.63889657E-04 -1.65439089E-05  2.74640546E-03  9.92681588E-01  5.02015339E-02
 -1.16622285E-04 -5.93555253E-07  8.35267800E-06 -1.79976179E-02  1.61017288E-03
  4.46203298E-06 -5.26375270E-04 -9.21571109E-03 -9.10283346E-03 -9.10428386E-03
 -3.86863370E-07  6.17224835E-05  2.05960309E-07 -3.31885599E-06  2.63213674E-03
 -3.15426380E-06  2.63067396E-03 -2.21545153E-02 -1.34018404E-03 -2.32447207E-04
 -7.82908636E-07  5.93937013E-05  5.49819998E-03  2.48170859E-03 -4.67192975E-06
 -7.38464202E-04 -1.59167360E-04  4.73947911E-05  5.15840906E-05 -1.21896508E-07
  8.49711096E-05  4.04036773E-08 -1.48171480E-03 -1.11934680E-04 -9.02387193E-05
  1.91657575E-05  5.46791159E-05 -1.48141738E-03  1.04096106E-03 -3.49625019E-04
 -5.02060890E-04 -2.75285691E-05  1.29522946E-04 -2.49964880E-05  4.05300117E-06
 -9.65394447E-06 -1.02066066E-05 -8.31789426E-05 -2.44126062E-04 -4.08913009E-04
 -2.15324344E-04 -8.83547067E-06 -1.18481431E-05 -7.08342171E-06  2.32816151E-03
  1.06432656E-03  9.08736122E-04 -3.01786474E-04  2.87072469E-05 -9.94624701E-06
 -6.54976823E-05  1.07344894E-05 -3.65627765E-05 -4.44029713E-07  1.25107723E-05
  3.97390949E-04  2.89535891E-05  4.57145354E-05 -1.70836385E-05  3.74154949E-07
  1.01907880E-05 -1.35260436E-03 -9.98665500E-04 -1.98986331E-06  3.01742809E-04
 -4.76497708E-06  9.68187790E-07 -1.87130103E-06  1.03676651E-08 -2.86120504E-06
  3.35735623E-08 -5.24576495E-05 -2.36890331E-04 -4.37209895E-04 -2.15045525E-04
 -9.10801162E-06  1.14553049E-05 -6.94109512E-06  2.29215961E-03  1.06500086E-03
 -9.01861605E-04 -3.01490966E-04  2.88677674E-05 -1.01207557E-05 -6.47938663E-05
 -1.04534907E-05 -3.62226116E-05  2.57068804E-07  1.28143664E-05  4.04939809E-04
 -1.48093076E-03 -1.13626998E-04 -9.03185147E-05 -1.94175896E-05  5.47105038E-05
 -1.46565805E-03  1.04166534E-03  3.25810316E-04 -5.02523670E-04 -2.75145245E-05
  1.29954581E-04 -2.55577363E-05 -3.81700754E-06 -9.95331014E-06  9.78545506E-06
 -8.21637089E-05 -2.35020898E-04 -3.06874692E-05 -5.37048019E-05  5.08259315E-04
 -8.79488442E-05  1.69737084E-05 -2.48936754E-06  3.92368941E-06  7.52219557E-05
 -1.41166880E-04  1.35256565E-04 -2.49034920E-05 -7.80512409E-06 -3.44446171E-05
 -3.81752883E-05 -2.04458555E-05 -1.74495938E-05  1.46520440E-05 -1.01116416E-05
  6.78822939E-05 -3.34118759E-05  1.70568003E-05 -3.79175446E-03 -1.42662778E-04
  4.87998451E-05 -2.30471800E-05 -1.80852437E-05 -3.85244591E-03  1.74836036E-03
 -2.41932205E-04 -5.98659984E-04  7.06171135E-05  6.40009049E-05  5.57984665E-05
 -2.09487526E-05 -3.26541400E-06  7.27830523E-06  1.64654539E-02  4.96819193E-04
  7.91368616E-05 -4.16703714E-05 -2.73654506E-05  4.14296702E-03 -1.60580841E-03
  1.90889105E-03  5.60326529E-04 -2.18789695E-04 -2.02609142E-04 -2.69118235E-04
 -4.25937357E-06 -2.33876080E-05  2.19987284E-07  5.58356509E-05  6.70747933E-04
  1.91745120E-01  9.66406977E-03  4.43452073E-05 -4.32514373E-05 -1.46430319E-05
 -6.59598029E-03 -1.47543132E-03 -2.12125156E-03  5.23371064E-04 -1.81260540E-03
 -1.74199031E-03 -1.85335600E-03 -1.73538627E-05 -1.87233145E-05  5.32504807E-06
 -1.44915368E-04 -1.16544528E-04  1.31975203E-01  5.89349554E-03 -2.23048784E-04
 -2.02616959E-04  7.87626329E-05  7.59194620E-03  3.89457824E-03  1.22534849E-03
 -1.37332575E-03 -1.51985767E-03 -1.71530000E-03 -1.52111093E-03 -4.88123661E-05
 -8.20284233E-07  1.74275643E-05 -1.43491160E-05  1.10297933E-03  9.60709344E-01
  4.83581751E-02  7.66021328E-05 -1.02250864E-04 -2.11342762E-05 -1.81040320E-02
 -2.19980509E-03  3.84292584E-03  7.69724044E-04 -9.04758516E-03 -9.04131361E-03
 -9.31363469E-03  3.17762876E-05 -1.24845162E-04 -9.88102833E-06 -4.98758920E-04
  9.65508469E-04  8.91978958E-02  3.80131983E-03  3.26464128E-04  4.85810314E-05
 -1.17153740E-04  7.50937323E-03 -2.96889139E-03 -2.61462448E-03  1.05126029E-03
 -1.20236500E-03 -1.07101484E-03 -1.10161974E-03  3.90700544E-05  4.73040910E-05
 -1.29142993E-05  4.13321030E-06  9.41848592E-04 -2.07258479E-05 -3.50325171E-05
  3.12829043E-04 -6.01609488E-05  9.31339158E-06  3.35065997E-06  3.07881036E-06
  8.64810878E-05 -1.05282279E-04 -2.07769885E-04 -1.06883277E-05 -4.19410043E-06
 -2.21341660E-05 -2.46406886E-05  3.15903846E-05 -1.16704046E-05 -2.24527646E-05