CEt3_transform_new_1 0.0                                                
SP        RB3LYP                                                      6-31G(d)            
Number of atoms                            I               23
Info1-9                                    I   N=           9
          32          32           0           0           0         110
           1          18        -502
Full Title                                 C   N=           2
CEt3_transform_new_1 0.0
Route                                      C   N=           2
# nosymm b3lyp/6-31G*   
Charge                                     I                0
Multiplicity                               I                1
Number of electrons                        I               58
Number of alpha electrons                  I               29
Number of beta electrons                   I               29
Number of basis functions                  I              137
Number of independent functions            I              137
Number of point charges in /Mol/           I                0
Number of translation vectors              I                0
Atomic numbers                             I   N=          23
           1           6           6           1           1           6
           1           1           1           6           1           1
           6           1           1           1           6           1
           1           6           1           1           1
Nuclear charges                            R   N=          23
  1.00000000E+00  6.00000000E+00  6.00000000E+00  1.00000000E+00  1.00000000E+00
  6.00000000E+00  1.00000000E+00  1.00000000E+00  1.00000000E+00  6.00000000E+00
  1.00000000E+00  1.00000000E+00  6.00000000E+00  1.00000000E+00  1.00000000E+00
  1.00000000E+00  6.00000000E+00  1.00000000E+00  1.00000000E+00  6.00000000E+00
  1.00000000E+00  1.00000000E+00  1.00000000E+00
Current cartesian coordinates              R   N=          69
  0.00000000E+00  0.00000000E+00  0.00000000E+00  0.00000000E+00  0.00000000E+00
  2.07870289E+00  1.98487512E+00 -1.90719381E+00  3.04245033E+00  1.51243779E+00
 -3.80672315E+00  2.36216546E+00  3.86403023E+00 -1.35937031E+00  2.36215112E+00
  1.98488317E+00 -1.90719547E+00  5.95263245E+00  3.39164001E+00 -3.25889593E+00
  6.65184082E+00  2.45693634E+00  1.12337793E-02  6.65182186E+00  8.68193094E-02
 -2.45538217E+00  6.65183670E+00  6.65192459E-01  2.65941787E+00  3.04245481E+00
 -7.60838358E-01  4.02964343E+00  2.36215015E+00  6.65194027E-01  2.65943484E+00
  5.12114952E+00  3.29593931E+00  3.43015172E+00  2.07867682E+00  3.76837789E+00
  5.32966736E+00  2.77786254E+00  4.70306457E+00  2.05955462E+00  2.77786978E+00
  3.29593776E+00  3.43013475E+00 -1.79146037E-05 -2.63074685E+00 -7.70733833E-01
  3.04248089E+00 -3.10318263E+00 -2.67024623E+00  2.36218785E+00 -2.63074530E+00
 -7.70716863E-01  5.12117562E+00 -4.61562042E+00  1.13647693E+00  2.07872529E+00
 -6.49479601E+00  5.88648063E-01  2.77793850E+00 -4.14318501E+00  3.03600088E+00
  2.77792770E+00 -4.61562197E+00  1.13645996E+00  3.05568714E-05
Number of symbols in /Mol/                 I                0
Force Field                                I                0
Atom Types                                 C   N=          23
                                                            
                                                            
                                                            
                                                            
                                    
Int Atom Types                             I   N=          23
           0           0           0           0           0           0
           0           0           0           0           0           0
           0           0           0           0           0           0
           0           0           0           0           0
MM charges                                 R   N=          23
  0.00000000E+00  0.00000000E+00  0.00000000E+00  0.00000000E+00  0.00000000E+00
  0.00000000E+00  0.00000000E+00  0.00000000E+00  0.00000000E+00  0.00000000E+00
  0.00000000E+00  0.00000000E+00  0.00000000E+00  0.00000000E+00  0.00000000E+00
  0.00000000E+00  0.00000000E+00  0.00000000E+00  0.00000000E+00  0.00000000E+00
  0.00000000E+00  0.00000000E+00  0.00000000E+00
Integer atomic weights                     I   N=          23
           1          12          12           1           1          12
           1           1           1          12           1           1
          12           1           1           1          12           1
           1          12           1           1           1
Real atomic weights                        R   N=          23
  1.00782504E+00  1.20000000E+01  1.20000000E+01  1.00782504E+00  1.00782504E+00
  1.20000000E+01  1.00782504E+00  1.00782504E+00  1.00782504E+00  1.20000000E+01
  1.00782504E+00  1.00782504E+00  1.20000000E+01  1.00782504E+00  1.00782504E+00
  1.00782504E+00  1.20000000E+01  1.00782504E+00  1.00782504E+00  1.20000000E+01
  1.00782504E+00  1.00782504E+00  1.00782504E+00
Atom fragment info                         I   N=          23
           0           0           0           0           0           0
           0           0           0           0           0           0
           0           0           0           0           0           0
           0           0           0           0           0
Atom residue num                           I   N=          23
           0           0           0           0           0           0
           0           0           0           0           0           0
           0           0           0           0           0           0
           0           0           0           0           0
Nuclear spins                              I   N=          23
           1           0           0           1           1           0
           1           1           1           0           1           1
           0           1           1           1           0           1
           1           0           1           1           1
Nuclear ZEff                               R   N=          23
 -1.00000000E+00 -3.60000000E+00 -3.60000000E+00 -1.00000000E+00 -1.00000000E+00
 -3.60000000E+00 -1.00000000E+00 -1.00000000E+00 -1.00000000E+00 -3.60000000E+00
 -1.00000000E+00 -1.00000000E+00 -3.60000000E+00 -1.00000000E+00 -1.00000000E+00
 -1.00000000E+00 -3.60000000E+00 -1.00000000E+00 -1.00000000E+00 -3.60000000E+00
 -1.00000000E+00 -1.00000000E+00 -1.00000000E+00
Nuclear ZNuc                               R   N=          23
  1.00000000E+00  6.00000000E+00  6.00000000E+00  1.00000000E+00  1.00000000E+00
  6.00000000E+00  1.00000000E+00  1.00000000E+00  1.00000000E+00  6.00000000E+00
  1.00000000E+00  1.00000000E+00  6.00000000E+00  1.00000000E+00  1.00000000E+00
  1.00000000E+00  6.00000000E+00  1.00000000E+00  1.00000000E+00  6.00000000E+00
  1.00000000E+00  1.00000000E+00  1.00000000E+00
Nuclear QMom                               R   N=          23
  0.00000000E+00  0.00000000E+00  0.00000000E+00  0.00000000E+00  0.00000000E+00
  0.00000000E+00  0.00000000E+00  0.00000000E+00  0.00000000E+00  0.00000000E+00
  0.00000000E+00  0.00000000E+00  0.00000000E+00  0.00000000E+00  0.00000000E+00
  0.00000000E+00  0.00000000E+00  0.00000000E+00  0.00000000E+00  0.00000000E+00
  0.00000000E+00  0.00000000E+00  0.00000000E+00
Nuclear GFac                               R   N=          23
  2.79284600E+00  0.00000000E+00  0.00000000E+00  2.79284600E+00  2.79284600E+00
  0.00000000E+00  2.79284600E+00  2.79284600E+00  2.79284600E+00  0.00000000E+00
  2.79284600E+00  2.79284600E+00  0.00000000E+00  2.79284600E+00  2.79284600E+00
  2.79284600E+00  0.00000000E+00  2.79284600E+00  2.79284600E+00  0.00000000E+00
  2.79284600E+00  2.79284600E+00  2.79284600E+00
MicOpt                                     I   N=          23
          -1          -1          -1          -1          -1          -1
          -1          -1          -1          -1          -1          -1
          -1          -1          -1          -1          -1          -1
          -1          -1          -1          -1          -1
Number of residues                         I                0
Number of secondary structures             I                0
Number of contracted shells                I               60
Number of primitive shells                 I              141
Pure/Cartesian d shells                    I                1
Pure/Cartesian f shells                    I                0
Highest angular momentum                   I                2
Largest degree of contraction              I                6
Shell types                                I   N=          60
           0           0           0          -1          -1           2
           0          -1          -1           2           0           0
           0           0           0          -1          -1           2
           0           0           0           0           0           0
           0          -1          -1           2           0           0
           0           0           0          -1          -1           2
           0           0           0           0           0           0
           0          -1          -1           2           0           0
           0           0           0          -1          -1           2
           0           0           0           0           0           0
Number of primitives per shell             I   N=          60
           3           1           6           3           1           1
           6           3           1           1           3           1
           3           1           6           3           1           1
           3           1           3           1           3           1
           6           3           1           1           3           1
           3           1           6           3           1           1
           3           1           3           1           3           1
           6           3           1           1           3           1
           3           1           6           3           1           1
           3           1           3           1           3           1
Shell to atom map                          I   N=          60
           1           1           2           2           2           2
           3           3           3           3           4           4
           5           5           6           6           6           6
           7           7           8           8           9           9
          10          10          10          10          11          11
          12          12          13          13          13          13
          14          14          15          15          16          16
          17          17          17          17          18          18
          19          19          20          20          20          20
          21          21          22          22          23          23
Primitive exponents                        R   N=         141
  1.87311370E+01  2.82539436E+00  6.40121692E-01  1.61277759E-01  3.04752488E+03
  4.57369518E+02  1.03948685E+02  2.92101553E+01  9.28666296E+00  3.16392696E+00
  7.86827235E+00  1.88128854E+00  5.44249258E-01  1.68714478E-01  8.00000000E-01
  3.04752488E+03  4.57369518E+02  1.03948685E+02  2.92101553E+01  9.28666296E+00
  3.16392696E+00  7.86827235E+00  1.88128854E+00  5.44249258E-01  1.68714478E-01
  8.00000000E-01  1.87311370E+01  2.82539436E+00  6.40121692E-01  1.61277759E-01
  1.87311370E+01  2.82539436E+00  6.40121692E-01  1.61277759E-01  3.04752488E+03
  4.57369518E+02  1.03948685E+02  2.92101553E+01  9.28666296E+00  3.16392696E+00
  7.86827235E+00  1.88128854E+00  5.44249258E-01  1.68714478E-01  8.00000000E-01
  1.87311370E+01  2.82539436E+00  6.40121692E-01  1.61277759E-01  1.87311370E+01
  2.82539436E+00  6.40121692E-01  1.61277759E-01  1.87311370E+01  2.82539436E+00
  6.40121692E-01  1.61277759E-01  3.04752488E+03  4.57369518E+02  1.03948685E+02
  2.92101553E+01  9.28666296E+00  3.16392696E+00  7.86827235E+00  1.88128854E+00
  5.44249258E-01  1.68714478E-01  8.00000000E-01  1.87311370E+01  2.82539436E+00
  6.40121692E-01  1.61277759E-01  1.87311370E+01  2.82539436E+00  6.40121692E-01
  1.61277759E-01  3.04752488E+03  4.57369518E+02  1.03948685E+02  2.92101553E+01
  9.28666296E+00  3.16392696E+00  7.86827235E+00  1.88128854E+00  5.44249258E-01
  1.68714478E-01  8.00000000E-01  1.87311370E+01  2.82539436E+00  6.40121692E-01
  1.61277759E-01  1.87311370E+01  2.82539436E+00  6.40121692E-01  1.61277759E-01
  1.87311370E+01  2.82539436E+00  6.40121692E-01  1.61277759E-01  3.04752488E+03
  4.57369518E+02  1.03948685E+02  2.92101553E+01  9.28666296E+00  3.16392696E+00
  7.86827235E+00  1.88128854E+00  5.44249258E-01  1.68714478E-01  8.00000000E-01
  1.87311370E+01  2.82539436E+00  6.40121692E-01  1.61277759E-01  1.87311370E+01
  2.82539436E+00  6.40121692E-01  1.61277759E-01  3.04752488E+03  4.57369518E+02
  1.03948685E+02  2.92101553E+01  9.28666296E+00  3.16392696E+00  7.86827235E+00
  1.88128854E+00  5.44249258E-01  1.68714478E-01  8.00000000E-01  1.87311370E+01
  2.82539436E+00  6.40121692E-01  1.61277759E-01  1.87311370E+01  2.82539436E+00
  6.40121692E-01  1.61277759E-01  1.87311370E+01  2.82539436E+00  6.40121692E-01
  1.61277759E-01
Contraction coefficients                   R   N=         141
  3.34946043E-02  2.34726953E-01  8.13757326E-01  1.00000000E+00  1.83473713E-03
  1.40373228E-02  6.88426223E-02  2.32184443E-01  4.67941348E-01  3.62311985E-01
 -1.19332420E-01 -1.60854152E-01  1.14345644E+00  1.00000000E+00  1.00000000E+00
  1.83473713E-03  1.40373228E-02  6.88426223E-02  2.32184443E-01  4.67941348E-01
  3.62311985E-01 -1.19332420E-01 -1.60854152E-01  1.14345644E+00  1.00000000E+00
  1.00000000E+00  3.34946043E-02  2.34726953E-01  8.13757326E-01  1.00000000E+00
  3.34946043E-02  2.34726953E-01  8.13757326E-01  1.00000000E+00  1.83473713E-03
  1.40373228E-02  6.88426223E-02  2.32184443E-01  4.67941348E-01  3.62311985E-01
 -1.19332420E-01 -1.60854152E-01  1.14345644E+00  1.00000000E+00  1.00000000E+00
  3.34946043E-02  2.34726953E-01  8.13757326E-01  1.00000000E+00  3.34946043E-02
  2.34726953E-01  8.13757326E-01  1.00000000E+00  3.34946043E-02  2.34726953E-01
  8.13757326E-01  1.00000000E+00  1.83473713E-03  1.40373228E-02  6.88426223E-02
  2.32184443E-01  4.67941348E-01  3.62311985E-01 -1.19332420E-01 -1.60854152E-01
  1.14345644E+00  1.00000000E+00  1.00000000E+00  3.34946043E-02  2.34726953E-01
  8.13757326E-01  1.00000000E+00  3.34946043E-02  2.34726953E-01  8.13757326E-01
  1.00000000E+00  1.83473713E-03  1.40373228E-02  6.88426223E-02  2.32184443E-01
  4.67941348E-01  3.62311985E-01 -1.19332420E-01 -1.60854152E-01  1.14345644E+00
  1.00000000E+00  1.00000000E+00  3.34946043E-02  2.34726953E-01  8.13757326E-01
  1.00000000E+00  3.34946043E-02  2.34726953E-01  8.13757326E-01  1.00000000E+00
  3.34946043E-02  2.34726953E-01  8.13757326E-01  1.00000000E+00  1.83473713E-03
  1.40373228E-02  6.88426223E-02  2.32184443E-01  4.67941348E-01  3.62311985E-01
 -1.19332420E-01 -1.60854152E-01  1.14345644E+00  1.00000000E+00  1.00000000E+00
  3.34946043E-02  2.34726953E-01  8.13757326E-01  1.00000000E+00  3.34946043E-02
  2.34726953E-01  8.13757326E-01  1.00000000E+00  1.83473713E-03  1.40373228E-02
  6.88426223E-02  2.32184443E-01  4.67941348E-01  3.62311985E-01 -1.19332420E-01
 -1.60854152E-01  1.14345644E+00  1.00000000E+00  1.00000000E+00  3.34946043E-02
  2.34726953E-01  8.13757326E-01  1.00000000E+00  3.34946043E-02  2.34726953E-01
  8.13757326E-01  1.00000000E+00  3.34946043E-02  2.34726953E-01  8.13757326E-01
  1.00000000E+00
P(S=P) Contraction coefficients            R   N=         141
  0.00000000E+00  0.00000000E+00  0.00000000E+00  0.00000000E+00  0.00000000E+00
  0.00000000E+00  0.00000000E+00  0.00000000E+00  0.00000000E+00  0.00000000E+00
  6.89990666E-02  3.16423961E-01  7.44308291E-01  1.00000000E+00  0.00000000E+00
  0.00000000E+00  0.00000000E+00  0.00000000E+00  0.00000000E+00  0.00000000E+00
  0.00000000E+00  6.89990666E-02  3.16423961E-01  7.44308291E-01  1.00000000E+00
  0.00000000E+00  0.00000000E+00  0.00000000E+00  0.00000000E+00  0.00000000E+00
  0.00000000E+00  0.00000000E+00  0.00000000E+00  0.00000000E+00  0.00000000E+00
  0.00000000E+00  0.00000000E+00  0.00000000E+00  0.00000000E+00  0.00000000E+00
  6.89990666E-02  3.16423961E-01  7.44308291E-01  1.00000000E+00  0.00000000E+00
  0.00000000E+00  0.00000000E+00  0.00000000E+00  0.00000000E+00  0.00000000E+00
  0.00000000E+00  0.00000000E+00  0.00000000E+00  0.00000000E+00  0.00000000E+00
  0.00000000E+00  0.00000000E+00  0.00000000E+00  0.00000000E+00  0.00000000E+00
  0.00000000E+00  0.00000000E+00  0.00000000E+00  6.89990666E-02  3.16423961E-01
  7.44308291E-01  1.00000000E+00  0.00000000E+00  0.00000000E+00  0.00000000E+00
  0.00000000E+00  0.00000000E+00  0.00000000E+00  0.00000000E+00  0.00000000E+00
  0.00000000E+00  0.00000000E+00  0.00000000E+00  0.00000000E+00  0.00000000E+00
  0.00000000E+00  0.00000000E+00  6.89990666E-02  3.16423961E-01  7.44308291E-01
  1.00000000E+00  0.00000000E+00  0.00000000E+00  0.00000000E+00  0.00000000E+00
  0.00000000E+00  0.00000000E+00  0.00000000E+00  0.00000000E+00  0.00000000E+00
  0.00000000E+00  0.00000000E+00  0.00000000E+00  0.00000000E+00  0.00000000E+00
  0.00000000E+00  0.00000000E+00  0.00000000E+00  0.00000000E+00  0.00000000E+00
  6.89990666E-02  3.16423961E-01  7.44308291E-01  1.00000000E+00  0.00000000E+00
  0.00000000E+00  0.00000000E+00  0.00000000E+00  0.00000000E+00  0.00000000E+00
  0.00000000E+00  0.00000000E+00  0.00000000E+00  0.00000000E+00  0.00000000E+00
  0.00000000E+00  0.00000000E+00  0.00000000E+00  0.00000000E+00  6.89990666E-02
  3.16423961E-01  7.44308291E-01  1.00000000E+00  0.00000000E+00  0.00000000E+00
  0.00000000E+00  0.00000000E+00  0.00000000E+00  0.00000000E+00  0.00000000E+00
  0.00000000E+00  0.00000000E+00  0.00000000E+00  0.00000000E+00  0.00000000E+00
  0.00000000E+00
Coordinates of each shell                  R   N=         180
  0.00000000E+00  0.00000000E+00  0.00000000E+00  0.00000000E+00  0.00000000E+00
  0.00000000E+00  0.00000000E+00  0.00000000E+00  2.07870289E+00  0.00000000E+00
  0.00000000E+00  2.07870289E+00  0.00000000E+00  0.00000000E+00  2.07870289E+00
  0.00000000E+00  0.00000000E+00  2.07870289E+00  1.98487512E+00 -1.90719381E+00
  3.04245033E+00  1.98487512E+00 -1.90719381E+00  3.04245033E+00  1.98487512E+00
 -1.90719381E+00  3.04245033E+00  1.98487512E+00 -1.90719381E+00  3.04245033E+00
  1.51243779E+00 -3.80672315E+00  2.36216546E+00  1.51243779E+00 -3.80672315E+00
  2.36216546E+00  3.86403023E+00 -1.35937031E+00  2.36215112E+00  3.86403023E+00
 -1.35937031E+00  2.36215112E+00  1.98488317E+00 -1.90719547E+00  5.95263245E+00
  1.98488317E+00 -1.90719547E+00  5.95263245E+00  1.98488317E+00 -1.90719547E+00
  5.95263245E+00  1.98488317E+00 -1.90719547E+00  5.95263245E+00  3.39164001E+00
 -3.25889593E+00  6.65184082E+00  3.39164001E+00 -3.25889593E+00  6.65184082E+00
  2.45693634E+00  1.12337793E-02  6.65182186E+00  2.45693634E+00  1.12337793E-02
  6.65182186E+00  8.68193094E-02 -2.45538217E+00  6.65183670E+00  8.68193094E-02
 -2.45538217E+00  6.65183670E+00  6.65192459E-01  2.65941787E+00  3.04245481E+00
  6.65192459E-01  2.65941787E+00  3.04245481E+00  6.65192459E-01  2.65941787E+00
  3.04245481E+00  6.65192459E-01  2.65941787E+00  3.04245481E+00 -7.60838358E-01
  4.02964343E+00  2.36215015E+00 -7.60838358E-01  4.02964343E+00  2.36215015E+00
  6.65194027E-01  2.65943484E+00  5.12114952E+00  6.65194027E-01  2.65943484E+00
  5.12114952E+00  3.29593931E+00  3.43015172E+00  2.07867682E+00  3.29593931E+00
  3.43015172E+00  2.07867682E+00  3.29593931E+00  3.43015172E+00  2.07867682E+00
  3.29593931E+00  3.43015172E+00  2.07867682E+00  3.76837789E+00  5.32966736E+00
  2.77786254E+00  3.76837789E+00  5.32966736E+00  2.77786254E+00  4.70306457E+00
  2.05955462E+00  2.77786978E+00  4.70306457E+00  2.05955462E+00  2.77786978E+00
  3.29593776E+00  3.43013475E+00 -1.79146037E-05  3.29593776E+00  3.43013475E+00
 -1.79146037E-05 -2.63074685E+00 -7.70733833E-01  3.04248089E+00 -2.63074685E+00
 -7.70733833E-01  3.04248089E+00 -2.63074685E+00 -7.70733833E-01  3.04248089E+00
 -2.63074685E+00 -7.70733833E-01  3.04248089E+00 -3.10318263E+00 -2.67024623E+00
  2.36218785E+00 -3.10318263E+00 -2.67024623E+00  2.36218785E+00 -2.63074530E+00
 -7.70716863E-01  5.12117562E+00 -2.63074530E+00 -7.70716863E-01  5.12117562E+00
 -4.61562042E+00  1.13647693E+00  2.07872529E+00 -4.61562042E+00  1.13647693E+00
  2.07872529E+00 -4.61562042E+00  1.13647693E+00  2.07872529E+00 -4.61562042E+00
  1.13647693E+00  2.07872529E+00 -6.49479601E+00  5.88648063E-01  2.77793850E+00
 -6.49479601E+00  5.88648063E-01  2.77793850E+00 -4.14318501E+00  3.03600088E+00
  2.77792770E+00 -4.14318501E+00  3.03600088E+00  2.77792770E+00 -4.61562197E+00
  1.13645996E+00  3.05568714E-05 -4.61562197E+00  1.13645996E+00  3.05568714E-05
Num ILSW                                   I              100
ILSW                                       I   N=         100
           0           1           0           0           2           0
           0           0           0           0         402          -1
           5           0           0           0           0           0
           0           0           1           0           0           0
           1           1           0           0           0           0
           0           0      100000           0          -1           0
           0           0           0           0           0           0
           0           0           0           1           0           0
           0 -2000000000           1           0           0           0
           0           0           4          52           0           0
           0           0           5           0           0           0
           0           0           0           0           0           1
           0           0           0           0           0           0
           0           0           0           0           0           0
           0           0           0           0           0           0
           0           0           0           0           0           0
           0           0           0           0
Num RLSW                                   I               52
RLSW                                       R   N=          52
  8.00000000E-01  7.20000000E-01  1.00000000E+00  8.10000000E-01  2.00000000E-01
  0.00000000E+00  0.00000000E+00  1.00000000E+00  0.00000000E+00  0.00000000E+00
  0.00000000E+00  0.00000000E+00  1.00000000E+00  0.00000000E+00  0.00000000E+00
  0.00000000E+00  0.00000000E+00  1.00000000E+00  0.00000000E+00  0.00000000E+00
  0.00000000E+00  0.00000000E+00  1.00000000E+00  0.00000000E+00  0.00000000E+00
  0.00000000E+00  0.00000000E+00  1.00000000E+00  0.00000000E+00  0.00000000E+00
  0.00000000E+00  0.00000000E+00  1.00000000E+00  0.00000000E+00  0.00000000E+00
  0.00000000E+00  0.00000000E+00  0.00000000E+00  1.00000000E+00  1.00000000E+00
  0.00000000E+00  1.00000000E+00  0.00000000E+00  0.00000000E+00  0.00000000E+00
  0.00000000E+00  0.00000000E+00  0.00000000E+00  0.00000000E+00  0.00000000E+00
  0.00000000E+00  0.00000000E+00
MxBond                                     I                4
NBond                                      I   N=          23
           1           4           4           1           1           4
           1           1           1           4           1           1
           4           1           1           1           4           1
           1           4           1           1           1
IBond                                      I   N=          92
           2           0           0           0           1           3
          10          17           2           4           5           6
           3           0           0           0           3           0
           0           0           3           7           8           9
           6           0           0           0           6           0
           0           0           6           0           0           0
           2          11          12          13          10           0
           0           0          10           0           0           0
          10          14          15          16          13           0
           0           0          13           0           0           0
          13           0           0           0           2          18
          19          20          17           0           0           0
          17           0           0           0          17          21
          22          23          20           0           0           0
          20           0           0           0          20           0
           0           0
RBond                                      R   N=          92
  1.00000000E+00  0.00000000E+00  0.00000000E+00  0.00000000E+00  1.00000000E+00
  1.00000000E+00  1.00000000E+00  1.00000000E+00  1.00000000E+00  1.00000000E+00
  1.00000000E+00  1.00000000E+00  1.00000000E+00  0.00000000E+00  0.00000000E+00
  0.00000000E+00  1.00000000E+00  0.00000000E+00  0.00000000E+00  0.00000000E+00
  1.00000000E+00  1.00000000E+00  1.00000000E+00  1.00000000E+00  1.00000000E+00
  0.00000000E+00  0.00000000E+00  0.00000000E+00  1.00000000E+00  0.00000000E+00
  0.00000000E+00  0.00000000E+00  1.00000000E+00  0.00000000E+00  0.00000000E+00
  0.00000000E+00  1.00000000E+00  1.00000000E+00  1.00000000E+00  1.00000000E+00
  1.00000000E+00  0.00000000E+00  0.00000000E+00  0.00000000E+00  1.00000000E+00
  0.00000000E+00  0.00000000E+00  0.00000000E+00  1.00000000E+00  1.00000000E+00
  1.00000000E+00  1.00000000E+00  1.00000000E+00  0.00000000E+00  0.00000000E+00
  0.00000000E+00  1.00000000E+00  0.00000000E+00  0.00000000E+00  0.00000000E+00
  1.00000000E+00  0.00000000E+00  0.00000000E+00  0.00000000E+00  1.00000000E+00
  1.00000000E+00  1.00000000E+00  1.00000000E+00  1.00000000E+00  0.00000000E+00
  0.00000000E+00  0.00000000E+00  1.00000000E+00  0.00000000E+00  0.00000000E+00
  0.00000000E+00  1.00000000E+00  1.00000000E+00  1.00000000E+00  1.00000000E+00
  1.00000000E+00  0.00000000E+00  0.00000000E+00  0.00000000E+00  1.00000000E+00
  0.00000000E+00  0.00000000E+00  0.00000000E+00  1.00000000E+00  0.00000000E+00
  0.00000000E+00  0.00000000E+00
Virial Ratio                               R      2.010198319656170E+00
SCF Energy                                 R     -2.763784631089184E+02
Total Energy                               R     -2.763784631089184E+02
RMS Density                                R      3.501665311728069E-09
Job Status                                 I                1
Nuclear derivative order                   I                0
External E-field                           R   N=          35
  0.00000000E+00  0.00000000E+00  0.00000000E+00  0.00000000E+00  0.00000000E+00
  0.00000000E+00  0.00000000E+00  0.00000000E+00  0.00000000E+00  0.00000000E+00
  0.00000000E+00  0.00000000E+00  0.00000000E+00  0.00000000E+00  0.00000000E+00
  0.00000000E+00  0.00000000E+00  0.00000000E+00  0.00000000E+00  0.00000000E+00
  0.00000000E+00  0.00000000E+00  0.00000000E+00  0.00000000E+00  0.00000000E+00
  0.00000000E+00  0.00000000E+00  0.00000000E+00  0.00000000E+00  0.00000000E+00
  0.00000000E+00  0.00000000E+00  0.00000000E+00  0.00000000E+00  0.00000000E+00
IOpCl                                      I                0
IROHF                                      I                0
Alpha Orbital Energies                     R   N=         137
 -1.01759603E+01 -1.01724133E+01 -1.01719565E+01 -1.01718780E+01 -1.01701291E+01
 -1.01699004E+01 -1.01685689E+01 -8.19334294E-01 -7.42367436E-01 -7.35476897E-01
 -6.62253942E-01 -6.13000466E-01 -6.00783692E-01 -5.30323214E-01 -4.75224055E-01
 -4.51771243E-01 -4.41321711E-01 -4.27733087E-01 -3.97706521E-01 -3.95405978E-01
 -3.76560131E-01 -3.60582975E-01 -3.55511890E-01 -3.46663000E-01 -3.45673179E-01
 -3.22763274E-01 -3.08362013E-01 -2.98856545E-01 -2.91972502E-01  8.97975572E-02
  1.04504070E-01  1.11443546E-01  1.20501789E-01  1.45319666E-01  1.54668308E-01
  1.58768522E-01  1.62078678E-01  1.72958433E-01  1.74552210E-01  1.86436024E-01
  1.99127608E-01  2.10127600E-01  2.23969516E-01  2.33592192E-01  2.41009806E-01
  2.48305672E-01  2.52147385E-01  2.66279133E-01  2.76470422E-01  2.83441492E-01
  2.95820009E-01  5.02758678E-01  5.17274968E-01  5.30084993E-01  5.40858523E-01
  5.48083168E-01  5.65761622E-01  5.87130555E-01  5.96680371E-01  6.38267264E-01
  6.50996602E-01  6.70578533E-01  6.74410508E-01  6.76599616E-01  7.06335694E-01
  7.18010280E-01  7.62669486E-01  8.04898599E-01  8.49302827E-01  8.52377759E-01
  8.75512747E-01  8.79368935E-01  8.93672957E-01  9.03555135E-01  9.08479134E-01
  9.11300958E-01  9.24322360E-01  9.28031257E-01  9.44702055E-01  9.53993426E-01
  9.72659879E-01  9.76867254E-01  9.92596517E-01  1.00243242E+00  1.01272950E+00
  1.05541690E+00  1.06478430E+00  1.09265293E+00  1.14614754E+00  1.28356715E+00
  1.34499306E+00  1.39256018E+00  1.39929195E+00  1.52719154E+00  1.57126587E+00
  1.59033406E+00  1.62521235E+00  1.66692369E+00  1.69303142E+00  1.73579669E+00
  1.78226126E+00  1.82879912E+00  1.87663496E+00  1.88457199E+00  1.93069842E+00
  1.97016978E+00  1.98354546E+00  1.99953154E+00  2.02205039E+00  2.05760063E+00
  2.07577312E+00  2.12275815E+00  2.16405117E+00  2.18991917E+00  2.21241421E+00
  2.29312945E+00  2.30340074E+00  2.31608580E+00  2.31758479E+00  2.32246644E+00
  2.32922377E+00  2.34830571E+00  2.42341655E+00  2.48506217E+00  2.55708492E+00
  2.56426517E+00  2.64652264E+00  2.69185897E+00  2.79904516E+00  2.84057145E+00
  4.13630198E+00  4.22064168E+00  4.23341995E+00  4.40369321E+00  4.43859927E+00