CH2tBu_transform_new_1 0.0                                              
SP        RB3LYP                                                      6-31G(d)            
Number of atoms                            I               17
Info1-9                                    I   N=           9
          26          26           0           0           0         110
           1          18        -502
Full Title                                 C   N=           3
CH2tBu_transform_new_1 0.0          
Route                                      C   N=           2
# nosymm b3lyp/6-31G*   
Charge                                     I                0
Multiplicity                               I                1
Number of electrons                        I               42
Number of alpha electrons                  I               21
Number of beta electrons                   I               21
Number of basis functions                  I               99
Number of independent functions            I               99
Number of point charges in /Mol/           I                0
Number of translation vectors              I                0
Atomic numbers                             I   N=          17
           1           6           1           1           6           6
           1           1           1           6           1           1
           1           6           1           1           1
Nuclear charges                            R   N=          17
  1.00000000E+00  6.00000000E+00  1.00000000E+00  1.00000000E+00  6.00000000E+00
  6.00000000E+00  1.00000000E+00  1.00000000E+00  1.00000000E+00  6.00000000E+00
  1.00000000E+00  1.00000000E+00  1.00000000E+00  6.00000000E+00  1.00000000E+00
  1.00000000E+00  1.00000000E+00
Current cartesian coordinates              R   N=          51
  0.00000000E+00  0.00000000E+00  0.00000000E+00  0.00000000E+00  0.00000000E+00
  2.07869953E+00  9.75457142E-01 -1.69703075E+00  2.77790583E+00  9.75457142E-01
  1.69703075E+00  2.77790583E+00 -2.75264452E+00  0.00000000E+00  3.04248435E+00
 -4.11560399E+00 -2.37850379E+00  2.07871871E+00 -6.06650966E+00 -2.37850379E+00
  2.77793359E+00 -4.11562181E+00 -2.37850379E+00  2.54357136E-05 -3.14014685E+00
 -4.07553454E+00  2.77792499E+00 -2.75262313E+00  0.00000000E+00  5.95265617E+00
 -4.70352880E+00  0.00000000E+00  6.65187103E+00 -1.76380836E+00 -1.71039112E+00
  6.65185047E+00 -1.76380836E+00  1.71039112E+00  6.65185047E+00 -4.11560399E+00
  2.37850379E+00  2.07871871E+00 -6.06650966E+00  2.37850379E+00  2.77793359E+00
 -3.14014685E+00  4.07553454E+00  2.77792499E+00 -4.11562181E+00  2.37850379E+00
  2.54357136E-05
Number of symbols in /Mol/                 I                0
Force Field                                I                0
Atom Types                                 C   N=          17
                                                            
                                                            
                                                            
                        
Int Atom Types                             I   N=          17
           0           0           0           0           0           0
           0           0           0           0           0           0
           0           0           0           0           0
MM charges                                 R   N=          17
  0.00000000E+00  0.00000000E+00  0.00000000E+00  0.00000000E+00  0.00000000E+00
  0.00000000E+00  0.00000000E+00  0.00000000E+00  0.00000000E+00  0.00000000E+00
  0.00000000E+00  0.00000000E+00  0.00000000E+00  0.00000000E+00  0.00000000E+00
  0.00000000E+00  0.00000000E+00
Integer atomic weights                     I   N=          17
           1          12           1           1          12          12
           1           1           1          12           1           1
           1          12           1           1           1
Real atomic weights                        R   N=          17
  1.00782504E+00  1.20000000E+01  1.00782504E+00  1.00782504E+00  1.20000000E+01
  1.20000000E+01  1.00782504E+00  1.00782504E+00  1.00782504E+00  1.20000000E+01
  1.00782504E+00  1.00782504E+00  1.00782504E+00  1.20000000E+01  1.00782504E+00
  1.00782504E+00  1.00782504E+00
Atom fragment info                         I   N=          17
           0           0           0           0           0           0
           0           0           0           0           0           0
           0           0           0           0           0
Atom residue num                           I   N=          17
           0           0           0           0           0           0
           0           0           0           0           0           0
           0           0           0           0           0
Nuclear spins                              I   N=          17
           1           0           1           1           0           0
           1           1           1           0           1           1
           1           0           1           1           1
Nuclear ZEff                               R   N=          17
 -1.00000000E+00 -3.60000000E+00 -1.00000000E+00 -1.00000000E+00 -3.60000000E+00
 -3.60000000E+00 -1.00000000E+00 -1.00000000E+00 -1.00000000E+00 -3.60000000E+00
 -1.00000000E+00 -1.00000000E+00 -1.00000000E+00 -3.60000000E+00 -1.00000000E+00
 -1.00000000E+00 -1.00000000E+00
Nuclear ZNuc                               R   N=          17
  1.00000000E+00  6.00000000E+00  1.00000000E+00  1.00000000E+00  6.00000000E+00
  6.00000000E+00  1.00000000E+00  1.00000000E+00  1.00000000E+00  6.00000000E+00
  1.00000000E+00  1.00000000E+00  1.00000000E+00  6.00000000E+00  1.00000000E+00
  1.00000000E+00  1.00000000E+00
Nuclear QMom                               R   N=          17
  0.00000000E+00  0.00000000E+00  0.00000000E+00  0.00000000E+00  0.00000000E+00
  0.00000000E+00  0.00000000E+00  0.00000000E+00  0.00000000E+00  0.00000000E+00
  0.00000000E+00  0.00000000E+00  0.00000000E+00  0.00000000E+00  0.00000000E+00
  0.00000000E+00  0.00000000E+00
Nuclear GFac                               R   N=          17
  2.79284600E+00  0.00000000E+00  2.79284600E+00  2.79284600E+00  0.00000000E+00
  0.00000000E+00  2.79284600E+00  2.79284600E+00  2.79284600E+00  0.00000000E+00
  2.79284600E+00  2.79284600E+00  2.79284600E+00  0.00000000E+00  2.79284600E+00
  2.79284600E+00  2.79284600E+00
MicOpt                                     I   N=          17
          -1          -1          -1          -1          -1          -1
          -1          -1          -1          -1          -1          -1
          -1          -1          -1          -1          -1
Number of residues                         I                0
Number of secondary structures             I                0
Number of contracted shells                I               44
Number of primitive shells                 I              103
Pure/Cartesian d shells                    I                1
Pure/Cartesian f shells                    I                0
Highest angular momentum                   I                2
Largest degree of contraction              I                6
Shell types                                I   N=          44
           0           0           0          -1          -1           2
           0           0           0           0           0          -1
          -1           2           0          -1          -1           2
           0           0           0           0           0           0
           0          -1          -1           2           0           0
           0           0           0           0           0          -1
          -1           2           0           0           0           0
           0           0
Number of primitives per shell             I   N=          44
           3           1           6           3           1           1
           3           1           3           1           6           3
           1           1           6           3           1           1
           3           1           3           1           3           1
           6           3           1           1           3           1
           3           1           3           1           6           3
           1           1           3           1           3           1
           3           1
Shell to atom map                          I   N=          44
           1           1           2           2           2           2
           3           3           4           4           5           5
           5           5           6           6           6           6
           7           7           8           8           9           9
          10          10          10          10          11          11
          12          12          13          13          14          14
          14          14          15          15          16          16
          17          17
Primitive exponents                        R   N=         103
  1.87311370E+01  2.82539436E+00  6.40121692E-01  1.61277759E-01  3.04752488E+03
  4.57369518E+02  1.03948685E+02  2.92101553E+01  9.28666296E+00  3.16392696E+00
  7.86827235E+00  1.88128854E+00  5.44249258E-01  1.68714478E-01  8.00000000E-01
  1.87311370E+01  2.82539436E+00  6.40121692E-01  1.61277759E-01  1.87311370E+01
  2.82539436E+00  6.40121692E-01  1.61277759E-01  3.04752488E+03  4.57369518E+02
  1.03948685E+02  2.92101553E+01  9.28666296E+00  3.16392696E+00  7.86827235E+00
  1.88128854E+00  5.44249258E-01  1.68714478E-01  8.00000000E-01  3.04752488E+03
  4.57369518E+02  1.03948685E+02  2.92101553E+01  9.28666296E+00  3.16392696E+00
  7.86827235E+00  1.88128854E+00  5.44249258E-01  1.68714478E-01  8.00000000E-01
  1.87311370E+01  2.82539436E+00  6.40121692E-01  1.61277759E-01  1.87311370E+01
  2.82539436E+00  6.40121692E-01  1.61277759E-01  1.87311370E+01  2.82539436E+00
  6.40121692E-01  1.61277759E-01  3.04752488E+03  4.57369518E+02  1.03948685E+02
  2.92101553E+01  9.28666296E+00  3.16392696E+00  7.86827235E+00  1.88128854E+00
  5.44249258E-01  1.68714478E-01  8.00000000E-01  1.87311370E+01  2.82539436E+00
  6.40121692E-01  1.61277759E-01  1.87311370E+01  2.82539436E+00  6.40121692E-01
  1.61277759E-01  1.87311370E+01  2.82539436E+00  6.40121692E-01  1.61277759E-01
  3.04752488E+03  4.57369518E+02  1.03948685E+02  2.92101553E+01  9.28666296E+00
  3.16392696E+00  7.86827235E+00  1.88128854E+00  5.44249258E-01  1.68714478E-01
  8.00000000E-01  1.87311370E+01  2.82539436E+00  6.40121692E-01  1.61277759E-01
  1.87311370E+01  2.82539436E+00  6.40121692E-01  1.61277759E-01  1.87311370E+01
  2.82539436E+00  6.40121692E-01  1.61277759E-01
Contraction coefficients                   R   N=         103
  3.34946043E-02  2.34726953E-01  8.13757326E-01  1.00000000E+00  1.83473713E-03
  1.40373228E-02  6.88426223E-02  2.32184443E-01  4.67941348E-01  3.62311985E-01
 -1.19332420E-01 -1.60854152E-01  1.14345644E+00  1.00000000E+00  1.00000000E+00
  3.34946043E-02  2.34726953E-01  8.13757326E-01  1.00000000E+00  3.34946043E-02
  2.34726953E-01  8.13757326E-01  1.00000000E+00  1.83473713E-03  1.40373228E-02
  6.88426223E-02  2.32184443E-01  4.67941348E-01  3.62311985E-01 -1.19332420E-01
 -1.60854152E-01  1.14345644E+00  1.00000000E+00  1.00000000E+00  1.83473713E-03
  1.40373228E-02  6.88426223E-02  2.32184443E-01  4.67941348E-01  3.62311985E-01
 -1.19332420E-01 -1.60854152E-01  1.14345644E+00  1.00000000E+00  1.00000000E+00
  3.34946043E-02  2.34726953E-01  8.13757326E-01  1.00000000E+00  3.34946043E-02
  2.34726953E-01  8.13757326E-01  1.00000000E+00  3.34946043E-02  2.34726953E-01
  8.13757326E-01  1.00000000E+00  1.83473713E-03  1.40373228E-02  6.88426223E-02
  2.32184443E-01  4.67941348E-01  3.62311985E-01 -1.19332420E-01 -1.60854152E-01
  1.14345644E+00  1.00000000E+00  1.00000000E+00  3.34946043E-02  2.34726953E-01
  8.13757326E-01  1.00000000E+00  3.34946043E-02  2.34726953E-01  8.13757326E-01
  1.00000000E+00  3.34946043E-02  2.34726953E-01  8.13757326E-01  1.00000000E+00
  1.83473713E-03  1.40373228E-02  6.88426223E-02  2.32184443E-01  4.67941348E-01
  3.62311985E-01 -1.19332420E-01 -1.60854152E-01  1.14345644E+00  1.00000000E+00
  1.00000000E+00  3.34946043E-02  2.34726953E-01  8.13757326E-01  1.00000000E+00
  3.34946043E-02  2.34726953E-01  8.13757326E-01  1.00000000E+00  3.34946043E-02
  2.34726953E-01  8.13757326E-01  1.00000000E+00
P(S=P) Contraction coefficients            R   N=         103
  0.00000000E+00  0.00000000E+00  0.00000000E+00  0.00000000E+00  0.00000000E+00
  0.00000000E+00  0.00000000E+00  0.00000000E+00  0.00000000E+00  0.00000000E+00
  6.89990666E-02  3.16423961E-01  7.44308291E-01  1.00000000E+00  0.00000000E+00
  0.00000000E+00  0.00000000E+00  0.00000000E+00  0.00000000E+00  0.00000000E+00
  0.00000000E+00  0.00000000E+00  0.00000000E+00  0.00000000E+00  0.00000000E+00
  0.00000000E+00  0.00000000E+00  0.00000000E+00  0.00000000E+00  6.89990666E-02
  3.16423961E-01  7.44308291E-01  1.00000000E+00  0.00000000E+00  0.00000000E+00
  0.00000000E+00  0.00000000E+00  0.00000000E+00  0.00000000E+00  0.00000000E+00
  6.89990666E-02  3.16423961E-01  7.44308291E-01  1.00000000E+00  0.00000000E+00
  0.00000000E+00  0.00000000E+00  0.00000000E+00  0.00000000E+00  0.00000000E+00
  0.00000000E+00  0.00000000E+00  0.00000000E+00  0.00000000E+00  0.00000000E+00
  0.00000000E+00  0.00000000E+00  0.00000000E+00  0.00000000E+00  0.00000000E+00
  0.00000000E+00  0.00000000E+00  0.00000000E+00  6.89990666E-02  3.16423961E-01
  7.44308291E-01  1.00000000E+00  0.00000000E+00  0.00000000E+00  0.00000000E+00
  0.00000000E+00  0.00000000E+00  0.00000000E+00  0.00000000E+00  0.00000000E+00
  0.00000000E+00  0.00000000E+00  0.00000000E+00  0.00000000E+00  0.00000000E+00
  0.00000000E+00  0.00000000E+00  0.00000000E+00  0.00000000E+00  0.00000000E+00
  0.00000000E+00  6.89990666E-02  3.16423961E-01  7.44308291E-01  1.00000000E+00
  0.00000000E+00  0.00000000E+00  0.00000000E+00  0.00000000E+00  0.00000000E+00
  0.00000000E+00  0.00000000E+00  0.00000000E+00  0.00000000E+00  0.00000000E+00
  0.00000000E+00  0.00000000E+00  0.00000000E+00
Coordinates of each shell                  R   N=         132
  0.00000000E+00  0.00000000E+00  0.00000000E+00  0.00000000E+00  0.00000000E+00
  0.00000000E+00  0.00000000E+00  0.00000000E+00  2.07869953E+00  0.00000000E+00
  0.00000000E+00  2.07869953E+00  0.00000000E+00  0.00000000E+00  2.07869953E+00
  0.00000000E+00  0.00000000E+00  2.07869953E+00  9.75457142E-01 -1.69703075E+00
  2.77790583E+00  9.75457142E-01 -1.69703075E+00  2.77790583E+00  9.75457142E-01
  1.69703075E+00  2.77790583E+00  9.75457142E-01  1.69703075E+00  2.77790583E+00
 -2.75264452E+00  0.00000000E+00  3.04248435E+00 -2.75264452E+00  0.00000000E+00
  3.04248435E+00 -2.75264452E+00  0.00000000E+00  3.04248435E+00 -2.75264452E+00
  0.00000000E+00  3.04248435E+00 -4.11560399E+00 -2.37850379E+00  2.07871871E+00
 -4.11560399E+00 -2.37850379E+00  2.07871871E+00 -4.11560399E+00 -2.37850379E+00
  2.07871871E+00 -4.11560399E+00 -2.37850379E+00  2.07871871E+00 -6.06650966E+00
 -2.37850379E+00  2.77793359E+00 -6.06650966E+00 -2.37850379E+00  2.77793359E+00
 -4.11562181E+00 -2.37850379E+00  2.54357136E-05 -4.11562181E+00 -2.37850379E+00
  2.54357136E-05 -3.14014685E+00 -4.07553454E+00  2.77792499E+00 -3.14014685E+00
 -4.07553454E+00  2.77792499E+00 -2.75262313E+00  0.00000000E+00  5.95265617E+00
 -2.75262313E+00  0.00000000E+00  5.95265617E+00 -2.75262313E+00  0.00000000E+00
  5.95265617E+00 -2.75262313E+00  0.00000000E+00  5.95265617E+00 -4.70352880E+00
  0.00000000E+00  6.65187103E+00 -4.70352880E+00  0.00000000E+00  6.65187103E+00
 -1.76380836E+00 -1.71039112E+00  6.65185047E+00 -1.76380836E+00 -1.71039112E+00
  6.65185047E+00 -1.76380836E+00  1.71039112E+00  6.65185047E+00 -1.76380836E+00
  1.71039112E+00  6.65185047E+00 -4.11560399E+00  2.37850379E+00  2.07871871E+00
 -4.11560399E+00  2.37850379E+00  2.07871871E+00 -4.11560399E+00  2.37850379E+00
  2.07871871E+00 -4.11560399E+00  2.37850379E+00  2.07871871E+00 -6.06650966E+00
  2.37850379E+00  2.77793359E+00 -6.06650966E+00  2.37850379E+00  2.77793359E+00
 -3.14014685E+00  4.07553454E+00  2.77792499E+00 -3.14014685E+00  4.07553454E+00
  2.77792499E+00 -4.11562181E+00  2.37850379E+00  2.54357136E-05 -4.11562181E+00
  2.37850379E+00  2.54357136E-05
Num ILSW                                   I              100
ILSW                                       I   N=         100
           0           1           0           0           2           0
           0           0           0           0         402          -1
           5           0           0           0           0           0
           0           0           1           0           0           0
           1           1           0           0           0           0
           0           0      100000           0          -1           0
           0           0           0           0           0           0
           0           0           0           1           0           0
           0 -2000000000           1           0           0           0
           0           0           4          52           0           0
           0           0           5           0           0           0
           0           0           0           0           0           1
           0           0           0           0           0           0
           0           0           0           0           0           0
           0           0           0           0           0           0
           0           0           0           0           0           0
           0           0           0           0
Num RLSW                                   I               52
RLSW                                       R   N=          52
  8.00000000E-01  7.20000000E-01  1.00000000E+00  8.10000000E-01  2.00000000E-01
  0.00000000E+00  0.00000000E+00  1.00000000E+00  0.00000000E+00  0.00000000E+00
  0.00000000E+00  0.00000000E+00  1.00000000E+00  0.00000000E+00  0.00000000E+00
  0.00000000E+00  0.00000000E+00  1.00000000E+00  0.00000000E+00  0.00000000E+00
  0.00000000E+00  0.00000000E+00  1.00000000E+00  0.00000000E+00  0.00000000E+00
  0.00000000E+00  0.00000000E+00  1.00000000E+00  0.00000000E+00  0.00000000E+00
  0.00000000E+00  0.00000000E+00  1.00000000E+00  0.00000000E+00  0.00000000E+00
  0.00000000E+00  0.00000000E+00  0.00000000E+00  1.00000000E+00  1.00000000E+00
  0.00000000E+00  1.00000000E+00  0.00000000E+00  0.00000000E+00  0.00000000E+00
  0.00000000E+00  0.00000000E+00  0.00000000E+00  0.00000000E+00  0.00000000E+00
  0.00000000E+00  0.00000000E+00
MxBond                                     I                4
NBond                                      I   N=          17
           1           4           1           1           4           4
           1           1           1           4           1           1
           1           4           1           1           1
IBond                                      I   N=          68
           2           0           0           0           1           3
           4           5           2           0           0           0
           2           0           0           0           2           6
          10          14           5           7           8           9
           6           0           0           0           6           0
           0           0           6           0           0           0
           5          11          12          13          10           0
           0           0          10           0           0           0
          10           0           0           0           5          15
          16          17          14           0           0           0
          14           0           0           0          14           0
           0           0
RBond                                      R   N=          68
  1.00000000E+00  0.00000000E+00  0.00000000E+00  0.00000000E+00  1.00000000E+00
  1.00000000E+00  1.00000000E+00  1.00000000E+00  1.00000000E+00  0.00000000E+00
  0.00000000E+00  0.00000000E+00  1.00000000E+00  0.00000000E+00  0.00000000E+00
  0.00000000E+00  1.00000000E+00  1.00000000E+00  1.00000000E+00  1.00000000E+00
  1.00000000E+00  1.00000000E+00  1.00000000E+00  1.00000000E+00  1.00000000E+00
  0.00000000E+00  0.00000000E+00  0.00000000E+00  1.00000000E+00  0.00000000E+00
  0.00000000E+00  0.00000000E+00  1.00000000E+00  0.00000000E+00  0.00000000E+00
  0.00000000E+00  1.00000000E+00  1.00000000E+00  1.00000000E+00  1.00000000E+00
  1.00000000E+00  0.00000000E+00  0.00000000E+00  0.00000000E+00  1.00000000E+00
  0.00000000E+00  0.00000000E+00  0.00000000E+00  1.00000000E+00  0.00000000E+00
  0.00000000E+00  0.00000000E+00  1.00000000E+00  1.00000000E+00  1.00000000E+00
  1.00000000E+00  1.00000000E+00  0.00000000E+00  0.00000000E+00  0.00000000E+00
  1.00000000E+00  0.00000000E+00  0.00000000E+00  0.00000000E+00  1.00000000E+00
  0.00000000E+00  0.00000000E+00  0.00000000E+00
Virial Ratio                               R      2.010582831178062E+00
SCF Energy                                 R     -1.977710756728064E+02
Total Energy                               R     -1.977710756728064E+02
RMS Density                                R      3.401262874163226E-09
Job Status                                 I                1
Nuclear derivative order                   I                0
External E-field                           R   N=          35
  0.00000000E+00  0.00000000E+00  0.00000000E+00  0.00000000E+00  0.00000000E+00
  0.00000000E+00  0.00000000E+00  0.00000000E+00  0.00000000E+00  0.00000000E+00
  0.00000000E+00  0.00000000E+00  0.00000000E+00  0.00000000E+00  0.00000000E+00
  0.00000000E+00  0.00000000E+00  0.00000000E+00  0.00000000E+00  0.00000000E+00
  0.00000000E+00  0.00000000E+00  0.00000000E+00  0.00000000E+00  0.00000000E+00
  0.00000000E+00  0.00000000E+00  0.00000000E+00  0.00000000E+00  0.00000000E+00
  0.00000000E+00  0.00000000E+00  0.00000000E+00  0.00000000E+00  0.00000000E+00
IOpCl                                      I                0
IROHF                                      I                0
Alpha Orbital Energies                     R   N=          99
 -1.01886847E+01 -1.01699405E+01 -1.01685552E+01 -1.01683502E+01 -1.01683411E+01
 -8.13748990E-01 -6.77429838E-01 -6.76610769E-01 -6.75591540E-01 -5.20716104E-01
 -4.42976056E-01 -4.42403557E-01 -4.41816032E-01 -3.97110372E-01 -3.96960380E-01
 -3.60572715E-01 -3.60444563E-01 -3.59878092E-01 -3.12827778E-01 -3.11604647E-01
 -3.10974131E-01  7.12457525E-02  1.35581230E-01  1.36308530E-01  1.36806906E-01
  1.64984355E-01  1.65810319E-01  1.66042552E-01  1.82132732E-01  1.82417414E-01
  2.20919891E-01  2.26047240E-01  2.27107228E-01  2.27148468E-01  2.47946760E-01
  2.49333191E-01  2.49907142E-01  5.14831319E-01  5.15573210E-01  5.18404854E-01
  5.19331709E-01  5.20351223E-01  6.21873727E-01  6.40293595E-01  6.41278190E-01
  6.42098225E-01  7.52288228E-01  7.52992668E-01  7.53165791E-01  8.63816456E-01
  8.64255869E-01  8.65205503E-01  9.00942364E-01  9.03222997E-01  9.05904659E-01
  9.06408454E-01  9.19340985E-01  9.19661400E-01  9.21874049E-01  9.51059942E-01
  9.53576249E-01  9.54255598E-01  9.87691832E-01  9.90589657E-01  9.91281263E-01
  1.39708319E+00  1.39863168E+00  1.50089405E+00  1.50150703E+00  1.50323526E+00
  1.69586310E+00  1.73981555E+00  1.73999291E+00  1.74037913E+00  1.86631559E+00
  1.86977311E+00  1.87341204E+00  2.10804799E+00  2.10914308E+00  2.11800403E+00
  2.11985890E+00  2.12011790E+00  2.23543015E+00  2.23923011E+00  2.24165077E+00
  2.25263654E+00  2.25697198E+00  2.26183099E+00  2.26397205E+00  2.56713002E+00
  2.56911425E+00  2.71767035E+00  2.71782830E+00  2.71951183E+00  4.15743249E+00
  4.31089596E+00  4.31221412E+00  4.31319064E+00  4.66392767E+00
Alpha MO coefficients                      R   N=        9801
 -1.88229657E-04 -1.44543908E-04  4.92566475E-03 -1.75526269E-05 -8.23887997E-05
 -2.34401958E-16  2.97559796E-05  5.80108170E-03 -2.40805393E-03  8.81725507E-16
  8.51287738E-04 -3.91433353E-04 -1.19032172E-04 -1.51273530E-04 -1.24158378E-16
  1.08986059E-04  3.16444908E-16 -1.87758393E-04 -1.51814255E-04 -1.87758393E-04
 -1.51814255E-04  9.93322414E-01  5.05810989E-02 -3.33123123E-06  9.06581816E-16
  6.16565549E-06 -2.64402113E-02 -1.49933056E-05 -6.26582745E-15 -4.41323595E-05
 -8.35131974E-03 -8.34189025E-03 -8.34925525E-03 -2.01720520E-16  3.48529750E-06
 -2.16304884E-16  5.04501508E-03 -1.03504021E-05  3.71194820E-05  6.20999636E-05
  2.68945572E-05  5.81331734E-03  1.19450615E-03  2.09918424E-03  8.50437112E-04
 -1.86957884E-04 -3.28823329E-04 -1.52150043E-04 -1.39804879E-04 -5.71978157E-05
 -9.85486547E-05 -1.86886419E-04 -1.49406126E-04 -1.86863348E-04 -1.44557438E-04
 -1.86254309E-04 -1.41466461E-04  5.40789501E-03  8.99561538E-06 -1.47475268E-06
  4.76556169E-16 -8.51184425E-05  5.81868441E-03  4.33383827E-06  6.64979137E-16
 -2.56636437E-03 -1.20734658E-04 -1.23897083E-04 -4.31119960E-04  2.76241069E-16
 -2.30730423E-06  5.62151371E-17 -1.89034614E-04 -1.41552612E-04 -1.86744842E-04
 -1.44934209E-04 -1.86744842E-04 -1.44934209E-04  5.04501508E-03 -1.03504021E-05
  3.71194820E-05 -6.20999636E-05  2.68945572E-05  5.81331734E-03  1.19450615E-03
 -2.09918424E-03  8.50437112E-04 -1.86957884E-04 -3.28823329E-04 -1.52150043E-04
  1.39804879E-04 -5.71978157E-05  9.85486547E-05 -1.86886419E-04 -1.49406126E-04
 -1.86254309E-04 -1.41466461E-04 -1.86863348E-04 -1.44557438E-04  1.02138318E-05
  4.04317847E-04 -3.22531351E-03 -4.66564619E-04  2.80463191E-05  1.76055111E-16
 -1.39481769E-04  1.10563979E-03 -7.53213299E-05 -8.46871849E-16  8.06828658E-04
 -4.60452733E-05 -9.34491338E-05 -1.26554806E-06  2.44691427E-16 -3.68419561E-05
  1.32614819E-16 -9.12201727E-05 -3.63878868E-04 -9.12201727E-05 -3.63878868E-04
 -5.54573524E-03 -2.78576540E-04  9.62543698E-07  4.48689519E-16 -2.86084208E-05
  2.63684706E-03 -6.06017926E-06 -3.93747685E-15  1.83705891E-03 -6.78817788E-05
 -6.68173543E-05 -2.64858198E-04  2.84063792E-16 -2.68627350E-07  2.95636795E-17
 -2.82359142E-03 -4.49212163E-04 -1.40347133E-05 -2.38708962E-05 -1.40793595E-04
  1.10283402E-03  3.55388749E-05  6.42104808E-05  8.17135593E-04 -8.53662144E-05
 -6.09588479E-05 -4.45455396E-06  2.40030441E-05  1.79319044E-05  3.21424199E-05
 -9.34020928E-05 -3.64519005E-04  1.09745656E-05  4.11215175E-04 -9.23597628E-05
 -3.63590749E-04  9.92931775E-01  5.00262356E-02 -1.19808430E-05  1.76946105E-16
 -6.45806174E-05 -1.69131747E-02  2.68845492E-05 -1.57587290E-15  1.13409200E-03
 -9.00433412E-03 -9.02111221E-03 -9.17899724E-03 -1.04080373E-15 -7.42937607E-06
 -5.62740036E-16 -4.03248909E-05  2.70810747E-03 -2.33083403E-05  2.64027907E-03
 -2.33083403E-05  2.64027907E-03 -2.82359143E-03 -4.49212163E-04 -1.40347133E-05
  2.38708962E-05 -1.40793595E-04  1.10283402E-03  3.55388749E-05 -6.42104808E-05
  8.17135593E-04 -8.53662144E-05 -6.09588479E-05 -4.45455396E-06 -2.40030441E-05
  1.79319044E-05 -3.21424199E-05 -9.34020928E-05 -3.64519005E-04 -9.23597629E-05
 -3.63590749E-04  1.09745656E-05  4.11215175E-04 -3.08264144E-05  2.69903874E-03
  9.92514705E-01  5.00713955E-02 -6.02847864E-05 -5.03955492E-17  1.86275182E-05
 -1.70183295E-02  1.09564783E-03  4.53767896E-15 -3.75459500E-04 -9.17798464E-03
 -9.01584030E-03 -9.03278971E-03 -1.06410629E-16  6.60605132E-05 -7.33388492E-16
 -3.08574958E-05  2.68495891E-03 -3.08574958E-05  2.68495891E-03 -4.90857879E-03
 -2.52737324E-04 -2.34117119E-05 -1.73833017E-17  6.77164816E-06  2.58949366E-03
  1.78254572E-03  1.55640175E-14 -5.76952733E-04 -2.41412516E-04 -6.54297321E-05
 -9.22270447E-05  1.95870381E-16  7.06380713E-05  4.84037239E-16 -2.05659246E-02
 -1.33632959E-03 -1.38097268E-04 -2.30590148E-05  3.16506951E-05  1.37748679E-03
  7.77773913E-04  6.87858040E-05 -2.19390295E-04  1.58647069E-04  1.02457507E-04
  7.71460061E-05  3.86883721E-05 -1.51423450E-05  1.35400815E-05  1.14100271E-05
  3.62878589E-04 -8.79582584E-05 -4.01798979E-04 -8.90481807E-05 -4.17380716E-04
  2.96058168E-03 -1.42163353E-04 -1.25559765E-04 -1.43943232E-15  7.05550544E-05
  9.39963996E-04  7.43069348E-04  8.62986710E-15 -3.17653979E-04 -7.78697152E-05
 -1.49236790E-04 -7.76915638E-05 -6.21394385E-17 -4.50438653E-05 -3.60644405E-16
  1.29756562E-05  4.34719605E-04 -8.85720919E-05 -3.42007990E-04 -8.85720919E-05
 -3.42007990E-04 -2.05659246E-02 -1.33632959E-03 -1.38097268E-04  2.30590148E-05
  3.16506951E-05  1.37748679E-03  7.77773913E-04 -6.87858040E-05 -2.19390295E-04
  1.58647069E-04  1.02457507E-04  7.71460060E-05 -3.86883721E-05 -1.51423450E-05
 -1.35400815E-05  1.14100272E-05  3.62878589E-04 -8.90481807E-05 -4.17380716E-04
 -8.79582584E-05 -4.01798979E-04 -8.71971305E-14 -2.70869798E-13  2.63267132E-11
  1.03672792E-12  8.42682736E-14  1.50173452E-04  3.27141515E-14  5.58785116E-13
 -3.91169722E-13 -8.85806205E-04 -2.33783590E-13 -2.87909848E-13 -3.08990577E-13
 -3.48615649E-13  6.55634297E-05 -2.20708978E-15  2.70020292E-05 -7.09489306E-05
 -5.36531784E-04  7.09489306E-05  5.36531784E-04 -5.20120905E-12 -2.62078083E-13
  1.15251490E-14  3.63209541E-05  9.18202784E-15  2.66843285E-12 -7.90557790E-13
 -2.17632440E-03 -6.03670308E-13 -1.16286994E-13 -1.98361996E-13 -9.23212503E-14
 -1.23241900E-04 -3.14945097E-14 -8.76193436E-05  7.02164744E-01  3.56539172E-02
 -1.43053725E-05  1.29158405E-04 -4.07916058E-06 -1.28020438E-02 -1.48830017E-04
 -1.14767063E-03 -1.31542420E-04 -6.34197153E-03 -6.45559108E-03 -6.32029349E-03
 -4.75017597E-05 -3.68472255E-05 -3.40615584E-05  4.09090889E-05  2.16729577E-03
  4.01079347E-05  2.14185817E-03 -2.64814338E-05  1.61907320E-03  2.04757183E-12
 -2.02025373E-13  5.41694417E-14  1.50095169E-04  7.16716068E-14  1.02471549E-12
 -3.31219404E-13 -8.84667985E-04 -3.28851184E-13 -1.24122946E-13 -9.24733474E-14
 -7.12457948E-14  4.95497983E-05  2.03248156E-14  5.52620020E-05 -8.66998387E-14