cHex_transform_new_1 0.0                                                
SP        RB3LYP                                                      6-31G(d)            
Number of atoms                            I               18
Info1-9                                    I   N=           9
          27          27           0           0           0         110
           1          18        -502
Full Title                                 C   N=           2
cHex_transform_new_1 0.0
Route                                      C   N=           2
# nosymm b3lyp/6-31G*   
Charge                                     I                0
Multiplicity                               I                1
Number of electrons                        I               48
Number of alpha electrons                  I               24
Number of beta electrons                   I               24
Number of basis functions                  I              114
Number of independent functions            I              114
Number of point charges in /Mol/           I                0
Number of translation vectors              I                0
Atomic numbers                             I   N=          18
           1           6           1           6           1           1
           6           1           1           6           1           1
           6           1           1           6           1           1
Nuclear charges                            R   N=          18
  1.00000000E+00  6.00000000E+00  1.00000000E+00  6.00000000E+00  1.00000000E+00
  1.00000000E+00  6.00000000E+00  1.00000000E+00  1.00000000E+00  6.00000000E+00
  1.00000000E+00  1.00000000E+00  6.00000000E+00  1.00000000E+00  1.00000000E+00
  6.00000000E+00  1.00000000E+00  1.00000000E+00
Current cartesian coordinates              R   N=          54
  0.00000000E+00  0.00000000E+00  0.00000000E+00  0.00000000E+00  0.00000000E+00
  2.07870575E+00  4.61615797E-01 -1.90219280E+00  2.77789136E+00  1.99567060E+00
  1.89588002E+00  3.04248217E+00  3.87169195E+00  1.33737116E+00  2.36217816E+00
  1.53405854E+00  3.79806469E+00  2.36218710E+00  1.99566328E+00  1.89585364E+00
  5.95265918E+00  2.45679588E+00 -2.52140110E-02  6.65183401E+00  3.41005928E+00
  3.23953004E+00  6.65186087E+00 -6.50059683E-01  2.66311850E+00  6.93531213E+00
 -6.50069245E-01  2.66311094E+00  9.01400342E+00 -1.09277402E+00  4.56482413E+00
  6.23611930E+00 -2.62633778E+00  7.85651614E-01  5.95263202E+00 -2.16521677E+00
 -1.13543336E+00  6.65182356E+00 -4.50287135E+00  1.32523530E+00  6.65183479E+00
 -2.62635163E+00  7.85653126E-01  3.04245728E+00 -4.06012437E+00 -5.76436407E-01
  2.36214885E+00 -3.08796367E+00  2.68783780E+00  2.36216221E+00
Number of symbols in /Mol/                 I                0
Force Field                                I                0
Atom Types                                 C   N=          18
                                                            
                                                            
                                                            
                                    
Int Atom Types                             I   N=          18
           0           0           0           0           0           0
           0           0           0           0           0           0
           0           0           0           0           0           0
MM charges                                 R   N=          18
  0.00000000E+00  0.00000000E+00  0.00000000E+00  0.00000000E+00  0.00000000E+00
  0.00000000E+00  0.00000000E+00  0.00000000E+00  0.00000000E+00  0.00000000E+00
  0.00000000E+00  0.00000000E+00  0.00000000E+00  0.00000000E+00  0.00000000E+00
  0.00000000E+00  0.00000000E+00  0.00000000E+00
Integer atomic weights                     I   N=          18
           1          12           1          12           1           1
          12           1           1          12           1           1
          12           1           1          12           1           1
Real atomic weights                        R   N=          18
  1.00782504E+00  1.20000000E+01  1.00782504E+00  1.20000000E+01  1.00782504E+00
  1.00782504E+00  1.20000000E+01  1.00782504E+00  1.00782504E+00  1.20000000E+01
  1.00782504E+00  1.00782504E+00  1.20000000E+01  1.00782504E+00  1.00782504E+00
  1.20000000E+01  1.00782504E+00  1.00782504E+00
Atom fragment info                         I   N=          18
           0           0           0           0           0           0
           0           0           0           0           0           0
           0           0           0           0           0           0
Atom residue num                           I   N=          18
           0           0           0           0           0           0
           0           0           0           0           0           0
           0           0           0           0           0           0
Nuclear spins                              I   N=          18
           1           0           1           0           1           1
           0           1           1           0           1           1
           0           1           1           0           1           1
Nuclear ZEff                               R   N=          18
 -1.00000000E+00 -3.60000000E+00 -1.00000000E+00 -3.60000000E+00 -1.00000000E+00
 -1.00000000E+00 -3.60000000E+00 -1.00000000E+00 -1.00000000E+00 -3.60000000E+00
 -1.00000000E+00 -1.00000000E+00 -3.60000000E+00 -1.00000000E+00 -1.00000000E+00
 -3.60000000E+00 -1.00000000E+00 -1.00000000E+00
Nuclear ZNuc                               R   N=          18
  1.00000000E+00  6.00000000E+00  1.00000000E+00  6.00000000E+00  1.00000000E+00
  1.00000000E+00  6.00000000E+00  1.00000000E+00  1.00000000E+00  6.00000000E+00
  1.00000000E+00  1.00000000E+00  6.00000000E+00  1.00000000E+00  1.00000000E+00
  6.00000000E+00  1.00000000E+00  1.00000000E+00
Nuclear QMom                               R   N=          18
  0.00000000E+00  0.00000000E+00  0.00000000E+00  0.00000000E+00  0.00000000E+00
  0.00000000E+00  0.00000000E+00  0.00000000E+00  0.00000000E+00  0.00000000E+00
  0.00000000E+00  0.00000000E+00  0.00000000E+00  0.00000000E+00  0.00000000E+00
  0.00000000E+00  0.00000000E+00  0.00000000E+00
Nuclear GFac                               R   N=          18
  2.79284600E+00  0.00000000E+00  2.79284600E+00  0.00000000E+00  2.79284600E+00
  2.79284600E+00  0.00000000E+00  2.79284600E+00  2.79284600E+00  0.00000000E+00
  2.79284600E+00  2.79284600E+00  0.00000000E+00  2.79284600E+00  2.79284600E+00
  0.00000000E+00  2.79284600E+00  2.79284600E+00
MicOpt                                     I   N=          18
          -1          -1          -1          -1          -1          -1
          -1          -1          -1          -1          -1          -1
          -1          -1          -1          -1          -1          -1
Number of residues                         I                0
Number of secondary structures             I                0
Number of contracted shells                I               48
Number of primitive shells                 I              114
Pure/Cartesian d shells                    I                1
Pure/Cartesian f shells                    I                0
Highest angular momentum                   I                2
Largest degree of contraction              I                6
Shell types                                I   N=          48
           0           0           0          -1          -1           2
           0           0           0          -1          -1           2
           0           0           0           0           0          -1
          -1           2           0           0           0           0
           0          -1          -1           2           0           0
           0           0           0          -1          -1           2
           0           0           0           0           0          -1
          -1           2           0           0           0           0
Number of primitives per shell             I   N=          48
           3           1           6           3           1           1
           3           1           6           3           1           1
           3           1           3           1           6           3
           1           1           3           1           3           1
           6           3           1           1           3           1
           3           1           6           3           1           1
           3           1           3           1           6           3
           1           1           3           1           3           1
Shell to atom map                          I   N=          48
           1           1           2           2           2           2
           3           3           4           4           4           4
           5           5           6           6           7           7
           7           7           8           8           9           9
          10          10          10          10          11          11
          12          12          13          13          13          13
          14          14          15          15          16          16
          16          16          17          17          18          18
Primitive exponents                        R   N=         114
  1.87311370E+01  2.82539436E+00  6.40121692E-01  1.61277759E-01  3.04752488E+03
  4.57369518E+02  1.03948685E+02  2.92101553E+01  9.28666296E+00  3.16392696E+00
  7.86827235E+00  1.88128854E+00  5.44249258E-01  1.68714478E-01  8.00000000E-01
  1.87311370E+01  2.82539436E+00  6.40121692E-01  1.61277759E-01  3.04752488E+03
  4.57369518E+02  1.03948685E+02  2.92101553E+01  9.28666296E+00  3.16392696E+00
  7.86827235E+00  1.88128854E+00  5.44249258E-01  1.68714478E-01  8.00000000E-01
  1.87311370E+01  2.82539436E+00  6.40121692E-01  1.61277759E-01  1.87311370E+01
  2.82539436E+00  6.40121692E-01  1.61277759E-01  3.04752488E+03  4.57369518E+02
  1.03948685E+02  2.92101553E+01  9.28666296E+00  3.16392696E+00  7.86827235E+00
  1.88128854E+00  5.44249258E-01  1.68714478E-01  8.00000000E-01  1.87311370E+01
  2.82539436E+00  6.40121692E-01  1.61277759E-01  1.87311370E+01  2.82539436E+00
  6.40121692E-01  1.61277759E-01  3.04752488E+03  4.57369518E+02  1.03948685E+02
  2.92101553E+01  9.28666296E+00  3.16392696E+00  7.86827235E+00  1.88128854E+00
  5.44249258E-01  1.68714478E-01  8.00000000E-01  1.87311370E+01  2.82539436E+00
  6.40121692E-01  1.61277759E-01  1.87311370E+01  2.82539436E+00  6.40121692E-01
  1.61277759E-01  3.04752488E+03  4.57369518E+02  1.03948685E+02  2.92101553E+01
  9.28666296E+00  3.16392696E+00  7.86827235E+00  1.88128854E+00  5.44249258E-01
  1.68714478E-01  8.00000000E-01  1.87311370E+01  2.82539436E+00  6.40121692E-01
  1.61277759E-01  1.87311370E+01  2.82539436E+00  6.40121692E-01  1.61277759E-01
  3.04752488E+03  4.57369518E+02  1.03948685E+02  2.92101553E+01  9.28666296E+00
  3.16392696E+00  7.86827235E+00  1.88128854E+00  5.44249258E-01  1.68714478E-01
  8.00000000E-01  1.87311370E+01  2.82539436E+00  6.40121692E-01  1.61277759E-01
  1.87311370E+01  2.82539436E+00  6.40121692E-01  1.61277759E-01
Contraction coefficients                   R   N=         114
  3.34946043E-02  2.34726953E-01  8.13757326E-01  1.00000000E+00  1.83473713E-03
  1.40373228E-02  6.88426223E-02  2.32184443E-01  4.67941348E-01  3.62311985E-01
 -1.19332420E-01 -1.60854152E-01  1.14345644E+00  1.00000000E+00  1.00000000E+00
  3.34946043E-02  2.34726953E-01  8.13757326E-01  1.00000000E+00  1.83473713E-03
  1.40373228E-02  6.88426223E-02  2.32184443E-01  4.67941348E-01  3.62311985E-01
 -1.19332420E-01 -1.60854152E-01  1.14345644E+00  1.00000000E+00  1.00000000E+00
  3.34946043E-02  2.34726953E-01  8.13757326E-01  1.00000000E+00  3.34946043E-02
  2.34726953E-01  8.13757326E-01  1.00000000E+00  1.83473713E-03  1.40373228E-02
  6.88426223E-02  2.32184443E-01  4.67941348E-01  3.62311985E-01 -1.19332420E-01
 -1.60854152E-01  1.14345644E+00  1.00000000E+00  1.00000000E+00  3.34946043E-02
  2.34726953E-01  8.13757326E-01  1.00000000E+00  3.34946043E-02  2.34726953E-01
  8.13757326E-01  1.00000000E+00  1.83473713E-03  1.40373228E-02  6.88426223E-02
  2.32184443E-01  4.67941348E-01  3.62311985E-01 -1.19332420E-01 -1.60854152E-01
  1.14345644E+00  1.00000000E+00  1.00000000E+00  3.34946043E-02  2.34726953E-01
  8.13757326E-01  1.00000000E+00  3.34946043E-02  2.34726953E-01  8.13757326E-01
  1.00000000E+00  1.83473713E-03  1.40373228E-02  6.88426223E-02  2.32184443E-01
  4.67941348E-01  3.62311985E-01 -1.19332420E-01 -1.60854152E-01  1.14345644E+00
  1.00000000E+00  1.00000000E+00  3.34946043E-02  2.34726953E-01  8.13757326E-01
  1.00000000E+00  3.34946043E-02  2.34726953E-01  8.13757326E-01  1.00000000E+00
  1.83473713E-03  1.40373228E-02  6.88426223E-02  2.32184443E-01  4.67941348E-01
  3.62311985E-01 -1.19332420E-01 -1.60854152E-01  1.14345644E+00  1.00000000E+00
  1.00000000E+00  3.34946043E-02  2.34726953E-01  8.13757326E-01  1.00000000E+00
  3.34946043E-02  2.34726953E-01  8.13757326E-01  1.00000000E+00
P(S=P) Contraction coefficients            R   N=         114
  0.00000000E+00  0.00000000E+00  0.00000000E+00  0.00000000E+00  0.00000000E+00
  0.00000000E+00  0.00000000E+00  0.00000000E+00  0.00000000E+00  0.00000000E+00
  6.89990666E-02  3.16423961E-01  7.44308291E-01  1.00000000E+00  0.00000000E+00
  0.00000000E+00  0.00000000E+00  0.00000000E+00  0.00000000E+00  0.00000000E+00
  0.00000000E+00  0.00000000E+00  0.00000000E+00  0.00000000E+00  0.00000000E+00
  6.89990666E-02  3.16423961E-01  7.44308291E-01  1.00000000E+00  0.00000000E+00
  0.00000000E+00  0.00000000E+00  0.00000000E+00  0.00000000E+00  0.00000000E+00
  0.00000000E+00  0.00000000E+00  0.00000000E+00  0.00000000E+00  0.00000000E+00
  0.00000000E+00  0.00000000E+00  0.00000000E+00  0.00000000E+00  6.89990666E-02
  3.16423961E-01  7.44308291E-01  1.00000000E+00  0.00000000E+00  0.00000000E+00
  0.00000000E+00  0.00000000E+00  0.00000000E+00  0.00000000E+00  0.00000000E+00
  0.00000000E+00  0.00000000E+00  0.00000000E+00  0.00000000E+00  0.00000000E+00
  0.00000000E+00  0.00000000E+00  0.00000000E+00  6.89990666E-02  3.16423961E-01
  7.44308291E-01  1.00000000E+00  0.00000000E+00  0.00000000E+00  0.00000000E+00
  0.00000000E+00  0.00000000E+00  0.00000000E+00  0.00000000E+00  0.00000000E+00
  0.00000000E+00  0.00000000E+00  0.00000000E+00  0.00000000E+00  0.00000000E+00
  0.00000000E+00  0.00000000E+00  6.89990666E-02  3.16423961E-01  7.44308291E-01
  1.00000000E+00  0.00000000E+00  0.00000000E+00  0.00000000E+00  0.00000000E+00
  0.00000000E+00  0.00000000E+00  0.00000000E+00  0.00000000E+00  0.00000000E+00
  0.00000000E+00  0.00000000E+00  0.00000000E+00  0.00000000E+00  0.00000000E+00
  0.00000000E+00  6.89990666E-02  3.16423961E-01  7.44308291E-01  1.00000000E+00
  0.00000000E+00  0.00000000E+00  0.00000000E+00  0.00000000E+00  0.00000000E+00
  0.00000000E+00  0.00000000E+00  0.00000000E+00  0.00000000E+00
Coordinates of each shell                  R   N=         144
  0.00000000E+00  0.00000000E+00  0.00000000E+00  0.00000000E+00  0.00000000E+00
  0.00000000E+00  0.00000000E+00  0.00000000E+00  2.07870575E+00  0.00000000E+00
  0.00000000E+00  2.07870575E+00  0.00000000E+00  0.00000000E+00  2.07870575E+00
  0.00000000E+00  0.00000000E+00  2.07870575E+00  4.61615797E-01 -1.90219280E+00
  2.77789136E+00  4.61615797E-01 -1.90219280E+00  2.77789136E+00  1.99567060E+00
  1.89588002E+00  3.04248217E+00  1.99567060E+00  1.89588002E+00  3.04248217E+00
  1.99567060E+00  1.89588002E+00  3.04248217E+00  1.99567060E+00  1.89588002E+00
  3.04248217E+00  3.87169195E+00  1.33737116E+00  2.36217816E+00  3.87169195E+00
  1.33737116E+00  2.36217816E+00  1.53405854E+00  3.79806469E+00  2.36218710E+00
  1.53405854E+00  3.79806469E+00  2.36218710E+00  1.99566328E+00  1.89585364E+00
  5.95265918E+00  1.99566328E+00  1.89585364E+00  5.95265918E+00  1.99566328E+00
  1.89585364E+00  5.95265918E+00  1.99566328E+00  1.89585364E+00  5.95265918E+00
  2.45679588E+00 -2.52140110E-02  6.65183401E+00  2.45679588E+00 -2.52140110E-02
  6.65183401E+00  3.41005928E+00  3.23953004E+00  6.65186087E+00  3.41005928E+00
  3.23953004E+00  6.65186087E+00 -6.50059683E-01  2.66311850E+00  6.93531213E+00
 -6.50059683E-01  2.66311850E+00  6.93531213E+00 -6.50059683E-01  2.66311850E+00
  6.93531213E+00 -6.50059683E-01  2.66311850E+00  6.93531213E+00 -6.50069245E-01
  2.66311094E+00  9.01400342E+00 -6.50069245E-01  2.66311094E+00  9.01400342E+00
 -1.09277402E+00  4.56482413E+00  6.23611930E+00 -1.09277402E+00  4.56482413E+00
  6.23611930E+00 -2.62633778E+00  7.85651614E-01  5.95263202E+00 -2.62633778E+00
  7.85651614E-01  5.95263202E+00 -2.62633778E+00  7.85651614E-01  5.95263202E+00
 -2.62633778E+00  7.85651614E-01  5.95263202E+00 -2.16521677E+00 -1.13543336E+00
  6.65182356E+00 -2.16521677E+00 -1.13543336E+00  6.65182356E+00 -4.50287135E+00
  1.32523530E+00  6.65183479E+00 -4.50287135E+00  1.32523530E+00  6.65183479E+00
 -2.62635163E+00  7.85653126E-01  3.04245728E+00 -2.62635163E+00  7.85653126E-01
  3.04245728E+00 -2.62635163E+00  7.85653126E-01  3.04245728E+00 -2.62635163E+00
  7.85653126E-01  3.04245728E+00 -4.06012437E+00 -5.76436407E-01  2.36214885E+00
 -4.06012437E+00 -5.76436407E-01  2.36214885E+00 -3.08796367E+00  2.68783780E+00
  2.36216221E+00 -3.08796367E+00  2.68783780E+00  2.36216221E+00
Num ILSW                                   I              100
ILSW                                       I   N=         100
           0           1           0           0           2           0
           0           0           0           0         402          -1
           5           0           0           0           0           0
           0           0           1           0           0           0
           1           1           0           0           0           0
           0           0      100000           0          -1           0
           0           0           0           0           0           0
           0           0           0           1           0           0
           0 -2000000000           1           0           0           0
           0           0           4          52           0           0
           0           0           5           0           0           0
           0           0           0           0           0           1
           0           0           0           0           0           0
           0           0           0           0           0           0
           0           0           0           0           0           0
           0           0           0           0           0           0
           0           0           0           0
Num RLSW                                   I               52
RLSW                                       R   N=          52
  8.00000000E-01  7.20000000E-01  1.00000000E+00  8.10000000E-01  2.00000000E-01
  0.00000000E+00  0.00000000E+00  1.00000000E+00  0.00000000E+00  0.00000000E+00
  0.00000000E+00  0.00000000E+00  1.00000000E+00  0.00000000E+00  0.00000000E+00
  0.00000000E+00  0.00000000E+00  1.00000000E+00  0.00000000E+00  0.00000000E+00
  0.00000000E+00  0.00000000E+00  1.00000000E+00  0.00000000E+00  0.00000000E+00
  0.00000000E+00  0.00000000E+00  1.00000000E+00  0.00000000E+00  0.00000000E+00
  0.00000000E+00  0.00000000E+00  1.00000000E+00  0.00000000E+00  0.00000000E+00
  0.00000000E+00  0.00000000E+00  0.00000000E+00  1.00000000E+00  1.00000000E+00
  0.00000000E+00  1.00000000E+00  0.00000000E+00  0.00000000E+00  0.00000000E+00
  0.00000000E+00  0.00000000E+00  0.00000000E+00  0.00000000E+00  0.00000000E+00
  0.00000000E+00  0.00000000E+00
MxBond                                     I                4
NBond                                      I   N=          18
           1           4           1           4           1           1
           4           1           1           4           1           1
           4           1           1           4           1           1
IBond                                      I   N=          72
           2           0           0           0           1           3
           4          16           2           0           0           0
           2           5           6           7           4           0
           0           0           4           0           0           0
           4           8           9          10           7           0
           0           0           7           0           0           0
           7          11          12          13          10           0
           0           0          10           0           0           0
          10          14          15          16          13           0
           0           0          13           0           0           0
           2          13          17          18          16           0
           0           0          16           0           0           0
RBond                                      R   N=          72
  1.00000000E+00  0.00000000E+00  0.00000000E+00  0.00000000E+00  1.00000000E+00
  1.00000000E+00  1.00000000E+00  1.00000000E+00  1.00000000E+00  0.00000000E+00
  0.00000000E+00  0.00000000E+00  1.00000000E+00  1.00000000E+00  1.00000000E+00
  1.00000000E+00  1.00000000E+00  0.00000000E+00  0.00000000E+00  0.00000000E+00
  1.00000000E+00  0.00000000E+00  0.00000000E+00  0.00000000E+00  1.00000000E+00
  1.00000000E+00  1.00000000E+00  1.00000000E+00  1.00000000E+00  0.00000000E+00
  0.00000000E+00  0.00000000E+00  1.00000000E+00  0.00000000E+00  0.00000000E+00
  0.00000000E+00  1.00000000E+00  1.00000000E+00  1.00000000E+00  1.00000000E+00
  1.00000000E+00  0.00000000E+00  0.00000000E+00  0.00000000E+00  1.00000000E+00
  0.00000000E+00  0.00000000E+00  0.00000000E+00  1.00000000E+00  1.00000000E+00
  1.00000000E+00  1.00000000E+00  1.00000000E+00  0.00000000E+00  0.00000000E+00
  0.00000000E+00  1.00000000E+00  0.00000000E+00  0.00000000E+00  0.00000000E+00
  1.00000000E+00  1.00000000E+00  1.00000000E+00  1.00000000E+00  1.00000000E+00
  0.00000000E+00  0.00000000E+00  0.00000000E+00  1.00000000E+00  0.00000000E+00
  0.00000000E+00  0.00000000E+00
Virial Ratio                               R      2.010372771639888E+00
SCF Energy                                 R     -2.358771352808292E+02
Total Energy                               R     -2.358771352808292E+02
RMS Density                                R      1.767835613593336E-09
Job Status                                 I                1
Nuclear derivative order                   I                0
External E-field                           R   N=          35
  0.00000000E+00  0.00000000E+00  0.00000000E+00  0.00000000E+00  0.00000000E+00
  0.00000000E+00  0.00000000E+00  0.00000000E+00  0.00000000E+00  0.00000000E+00
  0.00000000E+00  0.00000000E+00  0.00000000E+00  0.00000000E+00  0.00000000E+00
  0.00000000E+00  0.00000000E+00  0.00000000E+00  0.00000000E+00  0.00000000E+00
  0.00000000E+00  0.00000000E+00  0.00000000E+00  0.00000000E+00  0.00000000E+00
  0.00000000E+00  0.00000000E+00  0.00000000E+00  0.00000000E+00  0.00000000E+00
  0.00000000E+00  0.00000000E+00  0.00000000E+00  0.00000000E+00  0.00000000E+00
IOpCl                                      I                0
IROHF                                      I                0
Alpha Orbital Energies                     R   N=         114
 -1.01736248E+01 -1.01735748E+01 -1.01732614E+01 -1.01730930E+01 -1.01727880E+01
 -1.01727496E+01 -8.21742774E-01 -7.30155614E-01 -7.29092591E-01 -5.94963430E-01
 -5.94345889E-01 -5.47831672E-01 -4.69870464E-01 -4.32917513E-01 -4.31438693E-01
 -4.31211476E-01 -3.69830889E-01 -3.68792235E-01 -3.55135305E-01 -3.38160030E-01
 -3.37454315E-01 -3.21090304E-01 -2.86445104E-01 -2.86083010E-01  8.98068310E-02
  1.08360365E-01  1.35455193E-01  1.36166242E-01  1.60334249E-01  1.66539199E-01
  1.77356287E-01  1.78178879E-01  1.86390377E-01  1.86602353E-01  1.92176515E-01
  1.93378213E-01  2.39699234E-01  2.40816522E-01  2.48037605E-01  2.78481993E-01
  2.84829519E-01  2.85581093E-01  5.24875763E-01  5.42340212E-01  5.43190120E-01
  5.44012318E-01  5.52731867E-01  5.83136105E-01  5.83842524E-01  6.38901036E-01
  6.40248705E-01  6.66616580E-01  7.18061644E-01  7.18520422E-01  7.50210563E-01
  7.53657765E-01  8.36819031E-01  8.37572845E-01  8.61404525E-01  8.62919738E-01
  8.70261752E-01  8.89910336E-01  9.15032431E-01  9.16481764E-01  9.29397634E-01
  9.31092937E-01  9.62398528E-01  9.73317399E-01  9.74634297E-01  9.98430573E-01
  1.01713666E+00  1.18595916E+00  1.18837699E+00  1.35272166E+00  1.35372371E+00
  1.44652138E+00  1.44848227E+00  1.52666642E+00  1.61438179E+00  1.69965099E+00
  1.70092025E+00  1.74471935E+00  1.76347582E+00  1.87920999E+00  1.88242178E+00
  1.94400368E+00  1.94667942E+00  2.00174678E+00  2.00456848E+00  2.03153669E+00
  2.03417363E+00  2.05544463E+00  2.15231316E+00  2.15430619E+00  2.28119621E+00
  2.28284909E+00  2.36431993E+00  2.36585434E+00  2.37658799E+00  2.39226189E+00
  2.39709901E+00  2.40086448E+00  2.59631116E+00  2.59687029E+00  2.63318390E+00
  2.71696516E+00  2.71787900E+00  2.77883210E+00  4.13910797E+00  4.25330798E+00
  4.25550844E+00  4.54964127E+00  4.57289398E+00  4.57352302E+00
Alpha MO coefficients                      R   N=       12996
 -5.13533166E-05  5.87222342E-04  4.74001680E-02  1.96947614E-03 -1.08365250E-04
 -5.29739994E-05 -1.31623915E-04  1.47659429E-03  3.19046968E-05  3.27513833E-04
  1.02847919E-03 -6.09984027E-04 -5.74090992E-04 -4.86970304E-04  2.07833797E-06
  2.44082944E-06  1.52219064E-05 -1.45736592E-04 -2.04514677E-04  1.26651302E-01
  6.05637987E-03  3.72326583E-05  3.15597940E-05 -1.90365935E-05  2.72942789E-03
 -1.21998123E-04  3.31448200E-04  2.37906299E-03 -1.30764816E-03 -1.28000741E-03
 -1.55884380E-03 -5.92007490E-05 -6.05611484E-05 -6.87701175E-06 -1.49118979E-04
  3.86575623E-04 -2.35075557E-04  2.82158276E-04  9.72864891E-01  4.91968160E-02
 -1.32575135E-04 -8.54988588E-05 -7.48484932E-05 -1.90487860E-02  1.66574929E-03
  6.53326869E-05  1.09051656E-03 -8.77034638E-03 -8.56212120E-03 -8.81145874E-03
  1.00691013E-04  3.96124910E-05  4.02462737E-06  9.76349805E-05  2.81970186E-03
 -2.92500165E-05  2.34715420E-03  1.18891168E-01  5.66424854E-03  8.59131800E-06
  3.87985398E-05  3.06263992E-05  2.76935362E-03  2.19685529E-03 -3.13465555E-04
 -9.80280764E-04 -1.47695153E-03 -1.23816278E-03 -1.21052277E-03  4.53695923E-05
  4.13923450E-05 -5.74403736E-05 -1.47897276E-04  3.60581749E-04 -2.31564216E-04
  2.53076497E-04  3.06631295E-02  1.12027310E-03 -1.75337709E-04 -3.28577211E-05
 -3.77753167E-05  1.78060447E-03  1.01120498E-03  4.54180516E-05 -4.24730630E-04
 -3.51940340E-04 -4.26574694E-04 -4.40248716E-04 -9.98021065E-06 -4.73603581E-05
  3.67123531E-06 -1.43019284E-04 -2.54758761E-04 -5.15906801E-05  5.51734102E-04
  7.92877889E-02  4.17001664E-03 -2.77997781E-05  5.08447520E-05 -2.70630675E-05
 -2.87887970E-03 -7.47329592E-04 -1.70048612E-04 -5.18372039E-04 -7.17230558E-04
 -6.71060345E-04 -6.90406646E-04  3.42789064E-05 -5.47057365E-05  2.54772995E-05
 -1.86647467E-06  1.11151073E-04  1.27193605E-04  2.00455720E-04 -1.30345313E-04
  7.91242530E-04  3.17764466E-01  1.58070182E-02  2.33144507E-05 -1.59119759E-05
  2.62519471E-05 -1.80471218E-03 -2.01987399E-03 -3.62943367E-05  4.64209701E-04
 -3.23133057E-03 -2.98618849E-03 -2.94358623E-03  3.34613291E-05  4.20190434E-05
 -8.15549838E-05 -1.78813812E-04  8.75682545E-04  2.33274369E-02  7.92197335E-04
  1.59711011E-04  3.55576508E-05  2.94886280E-05  1.79673650E-03 -1.27477617E-03
 -3.86417008E-04 -2.92601704E-04 -2.95159535E-04 -3.75013428E-04 -3.35653837E-04
 -3.34329342E-05 -4.15775659E-05 -1.48541402E-05 -5.14007918E-05  4.78949849E-04
 -1.33178840E-04 -2.49674656E-04 -1.00286385E-01 -5.03614610E-03  7.12318877E-05
 -8.57346038E-06  7.03216351E-05  1.17829267E-03  2.21383878E-04  1.15929956E-05
  1.11476587E-04  8.83495518E-04  8.75365848E-04  9.04657193E-04  2.46394176E-05
 -4.66855650E-05  3.05930335E-05  7.01047619E-05 -4.16702510E-04 -6.27577204E-06
 -1.77111197E-04  8.99953103E-03  1.34329497E-04  9.53532025E-05  6.12973389E-05
  1.23208269E-04  1.20099881E-03 -5.95653772E-04 -2.93257605E-04 -7.06691103E-04
 -1.82651678E-04 -2.11074903E-04 -1.20066347E-04 -8.31249607E-06 -6.54848166E-06
  1.04074155E-05 -3.26956511E-05  4.18676716E-04 -8.16766638E-05 -2.82670147E-04
  1.90131405E-01  9.28281305E-03 -3.94168892E-06 -3.88495898E-06  4.55438830E-05
  1.03689248E-03 -5.66080573E-05 -4.46183391E-04 -2.24106704E-03 -1.85352336E-03
 -1.83565213E-03 -2.08822280E-03 -5.79849946E-05 -5.95810721E-05 -4.02779593E-06
 -2.05825518E-04  4.45347808E-04 -1.35702748E-04  5.42595093E-04  9.15519813E-01
  4.62321293E-02  1.29803951E-04  8.60314669E-05  7.59476076E-05 -1.63785027E-02
 -9.58107665E-04 -7.85720159E-05 -1.03613798E-03 -8.33751796E-03 -8.09903906E-03
 -8.38740195E-03  9.51163866E-05  6.08388730E-05 -2.19336346E-05 -4.61118618E-05
  2.18904493E-03 -1.25103255E-05  2.69759144E-03  3.55332367E-05  2.04860068E-03
  9.06429572E-01  4.60713428E-02 -2.86088066E-05  5.56969666E-05  2.19194798E-04
 -1.96996222E-02  1.37877494E-03 -1.24576462E-03 -1.96486152E-03 -8.07842464E-03
 -8.04757388E-03 -7.96334004E-03 -6.95933387E-05  1.13047533E-05 -1.07775294E-04
  1.69841907E-04  2.77582498E-03  1.95798371E-01  9.75603921E-03 -7.27011056E-05
 -2.40372405E-06 -2.38000462E-05  1.49617360E-04 -1.28672357E-03 -1.21446377E-03
 -1.28422084E-03 -1.92277087E-03 -1.92475998E-03 -1.92802289E-03 -1.49655068E-04
 -4.82170559E-05 -1.04434950E-04 -1.17859537E-04  3.33005616E-04 -1.67452033E-04
  6.49718091E-04 -3.39889475E-02 -2.12798575E-03  9.18969121E-07  9.86719678E-05
  1.47896517E-04  3.18987811E-03 -7.54674797E-04 -5.04547820E-04 -1.09361294E-03
  2.19528954E-04  1.80238611E-04  1.65425900E-04  1.70865986E-05  5.56151611E-05