3
hcn.log	Energy:  -58623.4138402
C          0.00000        0.00000       -0.49687
H          0.00000        0.00000       -1.56687
N          0.00000        0.00000        0.64973
