hcn_transform_new_1 0.0                                                 
SP        RB3LYP                                                      6-31G(d)            
Number of atoms                            I                3
Info1-9                                    I   N=           9
          12          12           0           0           0         110
           1          18        -502
Full Title                                 C   N=           2
hcn_transform_new_1 0.0 
Route                                      C   N=           2
# nosymm b3lyp/6-31G*   
Charge                                     I                0
Multiplicity                               I                1
Number of electrons                        I               14
Number of alpha electrons                  I                7
Number of beta electrons                   I                7
Number of basis functions                  I               32
Number of independent functions            I               32
Number of point charges in /Mol/           I                0
Number of translation vectors              I                0
Atomic numbers                             I   N=           3
           1           6           7
Nuclear charges                            R   N=           3
  1.00000000E+00  6.00000000E+00  7.00000000E+00
Current cartesian coordinates              R   N=           9
  0.00000000E+00  0.00000000E+00  0.00000000E+00  0.00000000E+00  0.00000000E+00
  2.02200695E+00  0.00000000E+00  0.00000000E+00  4.18876693E+00
Number of symbols in /Mol/                 I                0
Force Field                                I                0
Atom Types                                 C   N=           3
                                    
Int Atom Types                             I   N=           3
           0           0           0
MM charges                                 R   N=           3
  0.00000000E+00  0.00000000E+00  0.00000000E+00
Integer atomic weights                     I   N=           3
           1          12          14
Real atomic weights                        R   N=           3
  1.00782504E+00  1.20000000E+01  1.40030740E+01
Atom fragment info                         I   N=           3
           0           0           0
Atom residue num                           I   N=           3
           0           0           0
Nuclear spins                              I   N=           3
           1           0           2
Nuclear ZEff                               R   N=           3
 -1.00000000E+00 -3.60000000E+00 -4.55000000E+00
Nuclear ZNuc                               R   N=           3
  1.00000000E+00  6.00000000E+00  7.00000000E+00
Nuclear QMom                               R   N=           3
  0.00000000E+00  0.00000000E+00  2.04400000E+00
Nuclear GFac                               R   N=           3
  2.79284600E+00  0.00000000E+00  4.03761000E-01
MicOpt                                     I   N=           3
          -1          -1          -1
Number of residues                         I                0
Number of secondary structures             I                0
Number of contracted shells                I               10
Number of primitive shells                 I               26
Pure/Cartesian d shells                    I                1
Pure/Cartesian f shells                    I                0
Highest angular momentum                   I                2
Largest degree of contraction              I                6
Shell types                                I   N=          10
           0           0           0          -1          -1           2
           0          -1          -1           2
Number of primitives per shell             I   N=          10
           3           1           6           3           1           1
           6           3           1           1
Shell to atom map                          I   N=          10
           1           1           2           2           2           2
           3           3           3           3
Primitive exponents                        R   N=          26
  1.87311370E+01  2.82539436E+00  6.40121692E-01  1.61277759E-01  3.04752488E+03
  4.57369518E+02  1.03948685E+02  2.92101553E+01  9.28666296E+00  3.16392696E+00
  7.86827235E+00  1.88128854E+00  5.44249258E-01  1.68714478E-01  8.00000000E-01
  4.17351146E+03  6.27457911E+02  1.42902093E+02  4.02343293E+01  1.28202129E+01
  4.39043701E+00  1.16263619E+01  2.71627981E+00  7.72218397E-01  2.12031498E-01
  8.00000000E-01
Contraction coefficients                   R   N=          26
  3.34946043E-02  2.34726953E-01  8.13757326E-01  1.00000000E+00  1.83473713E-03
  1.40373228E-02  6.88426223E-02  2.32184443E-01  4.67941348E-01  3.62311985E-01
 -1.19332420E-01 -1.60854152E-01  1.14345644E+00  1.00000000E+00  1.00000000E+00
  1.83477216E-03  1.39946270E-02  6.85865518E-02  2.32240873E-01  4.69069948E-01
  3.60455199E-01 -1.14961182E-01 -1.69117479E-01  1.14585195E+00  1.00000000E+00
  1.00000000E+00
P(S=P) Contraction coefficients            R   N=          26
  0.00000000E+00  0.00000000E+00  0.00000000E+00  0.00000000E+00  0.00000000E+00
  0.00000000E+00  0.00000000E+00  0.00000000E+00  0.00000000E+00  0.00000000E+00
  6.89990666E-02  3.16423961E-01  7.44308291E-01  1.00000000E+00  0.00000000E+00
  0.00000000E+00  0.00000000E+00  0.00000000E+00  0.00000000E+00  0.00000000E+00
  0.00000000E+00  6.75797439E-02  3.23907296E-01  7.40895140E-01  1.00000000E+00
  0.00000000E+00
Coordinates of each shell                  R   N=          30
  0.00000000E+00  0.00000000E+00  0.00000000E+00  0.00000000E+00  0.00000000E+00
  0.00000000E+00  0.00000000E+00  0.00000000E+00  2.02200695E+00  0.00000000E+00
  0.00000000E+00  2.02200695E+00  0.00000000E+00  0.00000000E+00  2.02200695E+00
  0.00000000E+00  0.00000000E+00  2.02200695E+00  0.00000000E+00  0.00000000E+00
  4.18876693E+00  0.00000000E+00  0.00000000E+00  4.18876693E+00  0.00000000E+00
  0.00000000E+00  4.18876693E+00  0.00000000E+00  0.00000000E+00  4.18876693E+00
Num ILSW                                   I              100
ILSW                                       I   N=         100
           0           1           0           0           2           0
           0           0           0           0         402          -1
           5           0           0           0           0           0
           0           0           1           0           0           0
           1           1           0           0           0           0
           0           0      100000           0          -1           0
           0           0           0           0           0           0
           0           0           0           1           0           0
           0 -2000000000           1           0           0           0
           0           0           4          52           0           0
           0           0           5           0           0           0
           0           0           0           0           0           1
           0           0           0           0           0           0
           0           0           0           0           0           0
           0           0           0           0           0           0
           0           0           0           0           0           0
           0           0           0           0
Num RLSW                                   I               52
RLSW                                       R   N=          52
  8.00000000E-01  7.20000000E-01  1.00000000E+00  8.10000000E-01  2.00000000E-01
  0.00000000E+00  0.00000000E+00  1.00000000E+00  0.00000000E+00  0.00000000E+00
  0.00000000E+00  0.00000000E+00  1.00000000E+00  0.00000000E+00  0.00000000E+00
  0.00000000E+00  0.00000000E+00  1.00000000E+00  0.00000000E+00  0.00000000E+00
  0.00000000E+00  0.00000000E+00  1.00000000E+00  0.00000000E+00  0.00000000E+00
  0.00000000E+00  0.00000000E+00  1.00000000E+00  0.00000000E+00  0.00000000E+00
  0.00000000E+00  0.00000000E+00  1.00000000E+00  0.00000000E+00  0.00000000E+00
  0.00000000E+00  0.00000000E+00  0.00000000E+00  1.00000000E+00  1.00000000E+00
  0.00000000E+00  1.00000000E+00  0.00000000E+00  0.00000000E+00  0.00000000E+00
  0.00000000E+00  0.00000000E+00  0.00000000E+00  0.00000000E+00  0.00000000E+00
  0.00000000E+00  0.00000000E+00
MxBond                                     I                2
NBond                                      I   N=           3
           1           2           1
IBond                                      I   N=           6
           2           0           1           3           2           0
RBond                                      R   N=           6
  1.00000000E+00  0.00000000E+00  1.00000000E+00  3.00000000E+00  3.00000000E+00
  0.00000000E+00
Virial Ratio                               R      2.009080506144789E+00
SCF Energy                                 R     -9.342235732903187E+01
Total Energy                               R     -9.342235732903187E+01
RMS Density                                R      6.060323722565325E-09
Job Status                                 I                1
Nuclear derivative order                   I                0
External E-field                           R   N=          35
  0.00000000E+00  0.00000000E+00  0.00000000E+00  0.00000000E+00  0.00000000E+00
  0.00000000E+00  0.00000000E+00  0.00000000E+00  0.00000000E+00  0.00000000E+00
  0.00000000E+00  0.00000000E+00  0.00000000E+00  0.00000000E+00  0.00000000E+00
  0.00000000E+00  0.00000000E+00  0.00000000E+00  0.00000000E+00  0.00000000E+00
  0.00000000E+00  0.00000000E+00  0.00000000E+00  0.00000000E+00  0.00000000E+00
  0.00000000E+00  0.00000000E+00  0.00000000E+00  0.00000000E+00  0.00000000E+00
  0.00000000E+00  0.00000000E+00  0.00000000E+00  0.00000000E+00  0.00000000E+00
IOpCl                                      I                0
IROHF                                      I                0
Alpha Orbital Energies                     R   N=          32
 -1.43576841E+01 -1.02441440E+01 -9.23506648E-01 -6.07898621E-01 -3.79455976E-01
 -3.61395563E-01 -3.61395563E-01  2.43989831E-02  2.43989831E-02  8.20644078E-02
  2.77053295E-01  5.18800595E-01  5.18800595E-01  6.35621884E-01  6.94032188E-01
  7.72666995E-01  7.72666995E-01  8.13713375E-01  1.10657825E+00  1.44485103E+00
  1.50325557E+00  1.50325558E+00  1.53687153E+00  1.53687153E+00  1.95549436E+00
  1.95549437E+00  2.56296231E+00  2.56296231E+00  2.61584875E+00  2.99575961E+00
  3.86084982E+00  4.09674493E+00
Alpha MO coefficients                      R   N=        1024
  2.77362685E-04 -6.98707136E-04  7.28961326E-05  6.94755268E-05 -6.31704839E-17
 -1.10559220E-16 -8.48990874E-04 -1.75692265E-03 -4.42401828E-16  1.48939611E-16
 -1.64131132E-03  9.55172038E-05  9.55172038E-05 -1.44837508E-03  1.10730598E-17
 -4.54004915E-16  1.77403565E-16  9.92791211E-01  3.46488216E-02  1.87220127E-16
  2.52136249E-17 -2.28427650E-03  5.69419897E-03  3.13547184E-16 -2.60601279E-16
 -8.46231667E-04 -8.32771940E-03 -8.32771940E-03 -6.99316685E-03 -1.70491178E-17
 -8.06505783E-16  1.76845736E-16 -7.13569945E-04  3.93330651E-03  9.92434329E-01
  4.94726421E-02 -1.77044853E-17 -1.29921919E-16  1.07551543E-04 -4.38752762E-03
 -1.33014734E-16  1.23179498E-16  4.71001306E-03 -1.06182094E-02 -1.06182094E-02
 -8.68421818E-03  3.31707288E-18 -1.42336434E-16  6.10789928E-16 -6.60179608E-04
 -9.06720026E-07 -2.37105976E-17 -5.66727692E-17  1.62356311E-04 -4.51617813E-03
 -2.13498821E-17 -3.57485780E-16  2.18699665E-03  6.42876376E-06  6.42876376E-06
  9.47199596E-05 -1.23440050E-17  8.25773998E-17  5.97222360E-16  3.09879062E-02
 -5.02477388E-02 -1.53942229E-01  2.88706653E-01 -1.67135443E-16  7.23431040E-17
  2.11798959E-01  9.05068403E-02  1.72186155E-16 -6.66095917E-17 -9.19458608E-02
 -1.93302186E-02 -1.93302186E-02  1.76087328E-02  2.62539347E-16  1.15612045E-16
  2.83981363E-16 -1.84653733E-01  3.68403175E-01 -1.22914102E-17 -1.25088581E-16
 -2.04174099E-01  3.97721847E-01 -3.54131933E-16 -4.51698694E-17 -7.41198932E-02
 -1.74942087E-02 -1.74942087E-02  9.77811536E-03 -1.57847766E-16  4.12423101E-16
  1.29866025E-16 -3.03818444E-01 -1.61726118E-01  1.26595231E-01 -2.62503802E-01
 -7.99542912E-17 -2.65457987E-16  3.51647711E-01 -2.63815660E-01 -1.26293901E-16
  2.34222303E-18  9.52741854E-02  9.11897728E-03  9.11897728E-03 -2.32100700E-02
 -5.76199416E-17 -1.10902787E-16 -1.56479282E-16 -6.89460805E-02  1.52482525E-01
 -3.34706454E-17 -1.31520960E-16 -1.76821538E-02  1.51831144E-01 -1.25500089E-16
  1.26884414E-16  7.80822966E-03 -5.37132976E-03 -5.37132976E-03  1.34734445E-03
  5.71243947E-17  8.13728241E-17 -2.18174033E-16  8.20724670E-02  1.38778740E-01
  6.98615340E-02 -1.51622756E-01  1.72428598E-16  3.61562467E-16 -2.38390819E-01
 -9.89794586E-02  3.39241252E-17  5.94069291E-17  2.58589007E-02  3.50110180E-03
  3.50110180E-03  2.22047093E-02 -2.44236344E-16 -1.46193138E-16  2.45315590E-18
 -1.16725513E-01  2.47114118E-01 -3.21205839E-17  5.04931619E-16  5.12051674E-01
  4.55054361E-01 -3.44602370E-17  2.12987398E-16  2.68594503E-01  4.03864286E-03
  4.03864286E-03 -4.76150281E-02  1.87634654E-16 -1.80165540E-17 -9.28214453E-17
 -1.14472624E-16  3.38289924E-16 -2.11771238E-17  3.89464147E-16  3.50464395E-01
  2.24603030E-01  4.59486275E-17 -2.13140455E-15  1.98856916E-01  1.27441950E-01
 -4.62125532E-16  6.09432896E-17  6.04388730E-17 -6.55062337E-17  1.50178661E-16
  1.85269408E-02  1.18734088E-02 -1.15897365E-17 -3.75904595E-16  3.86284702E-01
  2.47559283E-01 -2.26249660E-16  1.62653010E-15  2.10499022E-01  1.34903056E-01
 -9.92565466E-16  1.86475258E-17 -7.36803408E-17  8.97556300E-17  1.23219302E-16
 -2.89261198E-02 -1.85379578E-02 -8.52720332E-17 -2.51518622E-16 -2.43218255E-17
 -1.31234590E-16 -2.24603030E-01  3.50464395E-01  3.30734622E-16  9.04251979E-16
 -1.27441950E-01  1.98856916E-01  2.12660280E-17  5.55204258E-17 -1.56310530E-17
  8.49130309E-17 -9.28477937E-17 -1.18734088E-02  1.85269408E-02  1.03795699E-16
 -9.44252914E-17 -2.47559283E-01  3.86284702E-01 -3.50010035E-16 -9.67313600E-16
 -1.34903056E-01  2.10499022E-01  1.97678823E-16  6.89260063E-17  2.03948913E-17
  3.41120123E-17 -1.05013257E-16  1.85379578E-02 -2.89261198E-02  1.24098452E-16
  4.88270852E-16  4.60128959E-17 -6.37149863E-17  5.64805462E-02  4.33217881E-01
  5.40472736E-17 -1.01679834E-15  8.70335056E-02  6.67565622E-01 -2.08129494E-16
  1.37581881E-17 -4.11424265E-17  9.89732505E-18 -8.61385380E-18 -5.57662580E-03
 -4.27739138E-02 -2.48008334E-17  2.70413387E-17 -6.05156761E-02 -4.64168192E-01
 -1.12486253E-16  6.14826146E-16 -7.81053296E-02 -5.99084600E-01 -3.46184018E-16
 -1.51291427E-17 -1.54567204E-17 -1.10848476E-17  8.68786160E-17 -6.30056516E-04
 -4.83266837E-03  3.77281952E-17 -2.23186770E-16  6.69004569E-18 -5.95325343E-17
  4.33217881E-01 -5.64805462E-02  4.19611555E-17 -7.47235516E-16  6.67565622E-01
 -8.70335056E-02 -7.85380424E-16 -5.76426697E-18  1.00288472E-17 -1.43009982E-17
 -5.09771311E-17 -4.27739138E-02  5.57662580E-03 -2.35981485E-17 -5.22198324E-17
 -4.64168192E-01  6.05156761E-02 -5.16463382E-17  1.06924090E-15 -5.99084600E-01
  7.81053296E-02 -4.73774233E-16 -3.06576000E-17 -4.34576270E-17 -1.85253507E-18
  5.56285381E-17 -4.83266837E-03  6.30056516E-04  1.82277826E-01  1.95952285E+00
  1.19089695E-01 -1.61238062E-01 -1.40051345E-16 -2.02044845E-16  2.76035737E-01
 -1.61656233E+00 -3.33207217E-16 -2.98796131E-16  7.62347160E-01 -2.22711857E-03
 -2.22711857E-03  2.37667077E-02  4.40578232E-16 -3.01213311E-17  6.82065160E-17
 -3.12383430E-02  1.30168143E-01  9.13980154E-17  1.43712615E-16 -1.80593853E-01
 -8.71081060E-02  3.17594629E-16  2.84136083E-16 -1.25980934E-01  4.71502322E-03
  4.71502322E-03  1.81084869E-02 -5.19086250E-17 -2.05709554E-16 -1.09470810E-16
  3.13675899E-01 -2.17957602E+00  1.53783829E-02  2.52531595E-01 -8.10765008E-16
  4.67256711E-16 -1.47301767E-01 -2.88696603E+00 -1.46723162E-15 -7.26175839E-16
 -3.69990439E+00  2.65993630E-03  2.65993630E-03  5.08875953E-02  1.51473036E-16
 -1.41570725E-17  2.66663596E-17 -1.24099411E-01  1.10166259E-01 -6.21890101E-16
  4.69983090E-16 -8.19066201E-02  4.32290794E+00  2.83050917E-15 -9.99236094E-17
 -1.76714342E+00 -5.78070143E-02 -5.78070143E-02  1.88233536E-02  1.37208050E-16
 -7.04683658E-17  3.05178176E-16 -1.28407230E-15 -2.16805865E-15  5.73216687E-18
 -3.27393213E-15 -9.74698860E-01  2.06603820E-01  7.43432020E-16 -1.69869221E-17
  1.08952401E+00 -2.30942941E-01 -5.71267904E-15  2.96476728E-16  3.33949492E-16
 -7.71907204E-17  1.48331808E-16 -2.60377474E-02  5.51913857E-03 -1.12646342E-16
 -1.16413881E-15 -1.53010830E-01  3.24332193E-02  3.26412401E-16  6.81364278E-15
  1.80392987E-02 -3.82373281E-03 -2.72559344E-15 -1.54110025E-16 -5.10550461E-16
 -1.38780981E-16  6.37462813E-17  7.91082913E-02 -1.67683331E-02  8.27834350E-16
 -1.21623398E-15  7.78779149E-17 -7.03480927E-16 -2.06603820E-01 -9.74698860E-01
 -2.98313821E-16 -1.13825291E-15  2.30942941E-01  1.08952401E+00 -8.94977235E-16
  5.95824344E-17 -1.64743123E-16  2.63228163E-16 -5.34542270E-16 -5.51913857E-03
 -2.60377474E-02 -1.39218687E-16  6.59026740E-16 -3.24332193E-02 -1.53010830E-01
  1.72830983E-16  1.19382914E-15  3.82373281E-03  1.80392987E-02 -1.62270447E-15
 -7.73535673E-17 -1.30187484E-16  1.49750898E-17 -3.44908283E-16  1.67683331E-02
  7.91082913E-02  4.09897663E-01  2.68209638E-01  4.04274113E-02  6.21376338E-01
 -2.69426996E-15 -4.80271934E-16  1.94316691E-01  1.06361813E+00  6.66509988E-15
  5.46064404E-16  1.40707733E+00 -1.79801845E-02 -1.79801845E-02  2.05918592E-01
 -2.02231279E-16 -4.45241996E-17 -7.76412620E-17  5.74741764E-02 -2.55822702E-01
  5.66492106E-15  1.19227135E-16 -5.59993824E-01 -1.63561543E+00 -9.03989695E-15
 -3.91307297E-16  1.89298236E+00 -4.91537266E-02 -4.91537266E-02 -1.12168632E-01
 -2.03800456E-16  4.30457730E-16 -6.68152531E-16  5.05415041E-01  1.20565188E+00
  4.79465629E-02 -2.39394455E-01 -3.52703108E-15 -5.61040328E-16 -7.55374306E-01
 -4.55265529E-01  9.96467621E-15  2.93401977E-15  2.45770634E+00 -5.49168892E-02
 -5.49168892E-02  1.56841140E-01  1.38461868E-16  7.96113383E-16  2.13655770E-16
 -3.12475233E-02 -1.80281507E-01  1.12661474E-14  5.41372971E-15 -1.25352210E-01
 -8.34218734E-01 -1.63677616E-14 -7.31896416E-15 -3.19962765E-01  1.98007038E-02
  1.98007038E-02 -2.14981457E-01  1.36221852E-16  4.65502707E-16  9.78962402E-17
  3.18619168E-15  6.84872537E-15  5.37177823E-16 -2.87502505E-15  2.55235976E-01
 -1.11014336E-01 -5.55825603E-15 -1.06102516E-14 -6.91205196E-01  3.00638206E-01
  1.11883519E-14  1.27834315E-15 -8.75489490E-16  1.99768383E-15 -4.64085573E-17
 -6.94400393E-02  3.02027950E-02 -3.56611030E-16 -1.19547792E-14 -8.72351238E-01
  3.79427286E-01 -5.61793235E-15  1.83779940E-14  1.24690109E+00 -5.42336933E-01
 -9.15156667E-16 -3.00982127E-15 -1.64166013E-15 -4.12777678E-15  6.01288692E-16
  8.11678618E-03 -3.53037861E-03  4.34090869E-15  1.95460774E-14  4.66091452E-16
  3.14513968E-15  1.11014336E-01  2.55235976E-01 -7.92598536E-15 -7.57683927E-15
 -3.00638206E-01 -6.91205196E-01  3.36184922E-14 -7.29422966E-16  6.37710217E-16
  2.03927709E-15 -6.82865535E-17 -3.02027950E-02 -6.94400393E-02 -4.44772645E-18
 -3.45420463E-15 -3.79427286E-01 -8.72351238E-01 -2.49184579E-15 -1.43227956E-14
  5.42336933E-01  1.24690109E+00  2.95065297E-15  1.21359855E-15 -1.28636532E-15
 -2.41531868E-15 -5.59704114E-16  3.53037861E-03  8.11678618E-03 -3.33851619E-01
  2.42564557E+00 -4.33584624E-02  1.50603208E+00 -9.68048964E-16 -1.07869030E-15
 -3.63933415E-01 -2.31409516E+00  2.71652533E-15  2.45360421E-15  2.17439584E+00
  1.41059857E-01  1.41059857E-01 -2.03818194E-02  4.88254273E-16 -3.57803287E-16
 -1.87678039E-16  3.46046385E-02  2.49464266E-02 -1.86962725E-16  2.88286127E-15
  3.08461071E-01 -1.11075262E+00 -5.19418082E-16 -4.01056100E-15  9.80130135E-02
 -3.09053229E-03 -3.09053229E-03  1.10947091E-01  4.91877894E-16  2.39269276E-16
 -6.36080107E-16 -1.08067758E+00  1.19299552E-01  3.24956641E-02 -9.42490710E-02
 -7.14065492E-16 -3.33975299E-16 -7.37434348E-01 -6.04987738E-01  8.34107699E-16
  3.74353461E-16 -1.09393465E+00 -4.28338506E-02 -4.28338506E-02  9.39377683E-02
 -2.36395841E-15 -5.77306167E-16 -1.24651451E-15 -5.64108699E-02  2.63371671E-01
  2.41504947E-15  1.65702918E-16 -7.00034140E-01  1.22153952E+00 -2.45838291E-15
  3.37565355E-16 -4.74843803E-02  6.48941165E-02  6.48941165E-02 -1.96436682E-01
 -1.79734474E-15 -8.19164464E-16  7.69642552E-16 -2.60349560E-01 -2.06510314E+00
 -3.61096436E-02 -1.37244085E-01 -8.95422856E-15  3.42052183E-15  1.67208335E-01
 -5.02930449E+00  5.07185531E-15 -1.90894338E-15 -5.71151067E+00  1.62701570E-01
  1.62701570E-01 -3.03132668E-01 -1.17569552E-14  1.71456812E-14 -9.05328787E-15
 -9.14650013E-02 -1.90587168E+00  2.46472016E-15  1.50975245E-15  1.78307914E-02
  9.34793020E+00 -7.84009858E-15  2.90398500E-15 -3.15381520E+00 -1.77641896E-01
 -1.77641896E-01 -2.75174155E-01 -8.28027592E-15 -1.89904329E-14  1.04802209E-14
 -9.38302287E-15 -1.18626046E-13 -1.95906388E-15 -9.95636622E-15 -2.57877807E-15
  3.62769800E-15  1.54049486E-14 -2.63545559E-13  1.68040556E-15 -3.72961991E-15
 -3.09742474E-13  6.15172757E-01 -6.15172757E-01 -1.45286932E-14 -1.47469847E-07
  6.88685909E-15 -1.53833967E-14 -4.78196894E-15 -1.06360822E-13 -1.53787228E-15
  5.35202608E-15  6.74420679E-15  5.03599194E-13 -1.26713040E-15  1.73062352E-15
 -1.72792024E-13  5.22711221E-01 -5.22711221E-01 -1.76842213E-14 -1.25304877E-07
 -7.01509820E-15  6.80734350E-15 -7.26897666E-15 -3.44690585E-14  9.14656022E-17
 -4.12755311E-15 -2.51356897E-15 -2.14939491E-15  1.32101503E-15 -7.50076394E-14
  1.58656994E-15  1.34191114E-15 -9.25799110E-14  1.27712641E-07 -1.27712632E-07
 -4.19017110E-15  7.10340296E-01  6.12885789E-15  3.15880141E-15 -1.38080437E-15
 -2.76167043E-14 -2.21494586E-15 -1.91631590E-15 -2.88797473E-15  1.43987842E-13
  2.35519856E-16  1.27658098E-15 -4.52502418E-14  1.08517204E-07 -1.08517206E-07
 -6.46565893E-15  6.03574949E-01 -6.86882994E-15 -3.62854089E-15  6.23886079E-15
  5.86038200E-14  9.14049625E-16  3.43037901E-15 -2.27128947E-01 -4.81390327E-02
 -6.10647574E-15  1.27577100E-13  1.24240937E-01  2.63323483E-02  1.54504659E-13
 -9.64663857E-15  7.55184056E-16  9.01678562E-15 -8.57968523E-15  6.48976170E-01
  1.37547792E-01  1.94911536E-15  4.93401702E-14 -2.39025605E-01 -5.06604796E-02
 -1.53174084E-15 -2.41596835E-13 -1.07883398E-02 -2.28654360E-03  8.21418017E-14
 -1.08717939E-15  5.09264119E-15  7.02984797E-15 -7.36020111E-15 -5.29212857E-01
 -1.12164457E-01 -7.04233930E-15 -4.86367760E-14 -6.92554424E-16 -3.64854886E-15
  4.81390327E-02 -2.27128947E-01  2.01710716E-15 -1.15570015E-13 -2.63323483E-02
  1.24240937E-01 -1.33296882E-13  1.65443189E-14 -7.99315642E-15 -7.35796273E-15
 -7.87471624E-16 -1.37547792E-01  6.48976170E-01 -1.89759463E-15 -4.24741209E-14
  5.06604796E-02 -2.39025605E-01 -1.15843085E-15  2.13796876E-13  2.28654360E-03
 -1.07883398E-02 -7.27936324E-14  8.78321856E-15 -1.48551993E-14 -6.40111333E-15
 -3.54086408E-15  1.12164457E-01 -5.29212857E-01  3.25340140E-15  8.46140243E-14
 -2.90784114E-16  1.46195117E-14 -1.46843060E-17 -5.15411660E-16 -1.16163331E-14
  8.89821233E-14 -2.55020397E-15  3.10498193E-15  1.67698451E-13 -6.24113111E-01
  6.24113111E-01  7.29638911E-15 -5.78361246E-08 -3.85914133E-15  5.09104459E-17
  2.26255942E-16  4.55952275E-14 -6.96883818E-17  3.32035141E-15  1.90647567E-15
 -2.15598539E-13  2.96789331E-15 -4.99248999E-15  6.83016471E-14  7.03368805E-01
 -7.03368805E-01  6.42332151E-15  6.51806913E-08 -3.07883648E-15  1.77748075E-15
  1.66558748E-16  1.38538711E-15 -4.64857199E-16  3.13051984E-15  9.17763514E-16
  9.69179647E-17  2.03609764E-16  5.26664068E-15  1.30040234E-15 -1.40482768E-15
  5.11215197E-15  5.00875483E-08 -5.00875532E-08  6.99039971E-17 -7.20663763E-01
  4.37693975E-15  1.32609478E-16 -1.95893698E-16  1.83822089E-15  4.08806033E-16
 -1.50752132E-15  5.80746196E-16 -6.86578402E-15 -2.23311104E-15  1.78084000E-15
  2.22809767E-15 -5.64481380E-08  5.64481356E-08 -2.97383585E-16  8.12180323E-01
  5.09291658E-15 -2.49301104E-15 -1.90516280E-14 -9.63497636E-15 -5.52186980E-15
 -5.97918494E-15 -4.93641097E-02  3.38062011E-01 -1.57801138E-14 -5.01479626E-14
 -4.60054755E-02  3.15060956E-01 -4.73127610E-14 -1.76477436E-14 -2.56034579E-14
  1.51513259E-14 -1.04704188E-15 -1.48003720E-01  1.01357921E+00 -3.33309256E-15
 -2.85508419E-14  2.47066748E-02 -1.69199611E-01  8.60813663E-15  1.14669132E-13
  6.41278303E-02 -4.39168931E-01 -5.59757067E-14 -1.91559915E-14 -2.15674754E-14
  2.22067306E-14  1.90470394E-15 -1.58397817E-01  1.08476148E+00  2.28005014E-14
  1.78624396E-14  7.54465186E-15  1.35521824E-14  3.38062011E-01  4.93641097E-02
  2.26995390E-14  6.58734324E-14  3.15060956E-01  4.60054755E-02  6.72351178E-14
  2.66454927E-14  2.79110418E-14 -1.80373217E-14  5.12059066E-15  1.01357921E+00
  1.48003720E-01  4.64134791E-15  3.78274660E-14 -1.69199611E-01 -2.47066748E-02
 -1.06383899E-14 -1.55852428E-13 -4.39168931E-01 -6.41278303E-02  7.78216677E-14
  3.05148597E-14  2.25267203E-14 -3.27746823E-14 -3.32676049E-15  1.08476148E+00
  1.58397817E-01 -5.98309376E-01 -5.74661849E-01 -1.74090582E-01 -3.39035023E-01
  1.63141905E-14 -8.76325856E-15 -5.27635542E-01 -1.87269842E+00  1.50617644E-14
 -9.23447678E-15 -2.03439815E+00 -6.18313289E-01 -6.18313289E-01  4.39842922E-01
  2.52547772E-15  4.73734728E-14 -2.62808194E-14 -7.31203485E-02 -1.14711512E+00
 -4.70050492E-15  3.47482810E-15  2.38242524E-01  4.14845137E+00 -2.34374748E-14
  1.30974178E-14 -2.01339218E+00 -4.85053193E-01 -4.85053193E-01  8.51286295E-01
  5.11153827E-16  5.29082701E-14 -2.88928315E-14  4.32545422E-01 -3.26912826E-01
  1.59297812E-02 -1.58054127E+00  3.73722324E-16  3.14711527E-16 -1.25240553E+00
 -1.67085759E+00  2.97588863E-16 -4.76136828E-16 -9.10963245E-01  7.74907226E-01
  7.74907226E-01 -1.09165072E+00 -8.77758755E-16  6.08000416E-16  1.39072929E-16
 -2.01241321E-02  3.21429560E-01  2.51762527E-15 -4.50837327E-16 -1.00495570E+00
  2.34301286E+00 -2.31841493E-15  7.43530380E-16 -1.24939828E+00 -5.14319292E-01
 -5.14319292E-01  1.32367158E+00  1.17140507E-15  1.74537237E-15  8.87967982E-16
 -1.94886519E-01 -1.15039839E+00 -2.64235517E-02  2.45422415E-01  2.35848223E-15
 -1.46337600E-15  3.40006720E-01 -3.36493332E+00  1.86136263E-15 -3.13418283E-15
 -3.36638373E+00 -1.22831671E-01 -1.22831671E-01  7.89746207E-02  1.37079430E-15
  5.32378385E-15 -4.11601064E-15 -5.40891768E-01  5.94887895E-01  3.23088921E-15
 -1.97610063E-16  3.21284242E-01  7.24430165E+00 -6.09406410E-15  3.94389808E-15
 -2.12083163E+00 -1.67403512E+00 -1.67403512E+00 -1.59612102E+00 -9.11622397E-17
  8.81144026E-15 -4.81887380E-15  4.14059613E-01 -6.57948164E-01 -4.49856782E-01
  2.90136145E+00 -9.77413944E-16 -5.58952201E-16 -3.78363354E-01  9.08616401E-01
  1.15600342E-15  3.77902547E-18 -4.38246643E-01 -1.56199627E+00 -1.56199627E+00
 -2.44772070E+00  1.83332250E-15  1.02823391E-15 -3.82112523E-16  5.01990842E-02
  3.64455488E-01 -1.99292093E-15  3.56603078E-16 -5.85887162E-01  1.08292070E-01
  1.81480752E-15 -3.33853364E-16 -1.95921610E-01  3.87214979E-02  3.87214979E-02
  3.84092083E-01 -3.49150553E-16  7.36343937E-16 -6.00360574E-16
Orthonormal basis                          R   N=        1024
  5.04097664E-02  8.94773244E-02  3.21723750E-02  1.49714567E-01  4.59042406E-20
  3.58626880E-22  4.36162565E-02  1.59901767E-01  2.72286549E-21 -6.32529680E-24
  5.08926157E-02  1.05016494E-01  1.05016494E-01  1.35215983E-01  3.79710978E-44
  1.50404970E-22 -3.13228627E-25  2.29558189E-02  1.16217573E-01  8.41198748E-22
 -1.90200087E-24 -5.19824727E-02  1.42201905E-01  1.68378389E-21 -3.07765051E-24
 -8.98113883E-02  8.95309258E-02  8.95309258E-02  1.17506717E-01 -2.65540923E-46
 -1.42552341E-21  3.12424314E-24 -1.61209230E-01 -1.77206216E-01 -2.68294648E-02
 -1.01364605E-01  0.00000000E+00 -7.13433048E-21  1.59945993E-01 -8.48956397E-02
  1.22204841E-19 -6.85761100E-22  2.37580462E-01 -8.20317347E-02 -8.20317347E-02
 -6.19664767E-02  0.00000000E+00  1.76302570E-20 -9.13648016E-23  3.71920948E-02
  1.56543411E-01  4.91802290E-20 -2.66607414E-22  3.82439807E-02  1.33420123E-01
  8.70840463E-20 -4.17916676E-22  1.19477947E-01  1.26584253E-01  1.26584253E-01
  1.03567340E-01 -8.37396293E-41 -6.16567578E-20  3.31644206E-22  6.41635503E-17
  4.98696986E-17  3.68566355E-17 -1.81611897E-16  2.83170885E-01  2.53386636E-02
  3.60975579E-17 -3.83485742E-17  3.39950356E-01  3.04193975E-02 -1.56848313E-17
  5.71968730E-17  7.52787174E-17 -5.75585253E-17  0.00000000E+00  1.50511529E-01
  1.34680548E-02 -8.20346171E-17 -2.24501674E-17  2.47245730E-01  2.21240131E-02
  8.11525983E-17  7.29720892E-17  3.43871124E-01  3.07702351E-02 -5.29766592E-17
  3.83352242E-19 -4.93417199E-17 -1.08524625E-18 -4.54782245E-18 -1.52494640E-01
 -1.36455073E-02 -8.14676450E-18 -1.94720683E-17  4.42458917E-17  2.04153265E-17
 -2.53386636E-02  2.83170885E-01  3.01762263E-17 -1.41036091E-17 -3.04193975E-02
  3.39950356E-01 -7.71615620E-17 -5.68844228E-17  2.44838772E-17 -2.68553965E-17
 -5.42455333E-17 -1.34680548E-02  1.50511529E-01  4.06807963E-17 -8.55285413E-18
 -2.21240131E-02  2.47245730E-01 -2.86978556E-18  5.85731851E-17 -3.07702351E-02
  3.43871124E-01 -1.88930241E-17 -5.52125113E-17  7.55983321E-17 -6.43787262E-18
 -1.37756144E-17  1.36455073E-02 -1.52494640E-01  2.75419878E-01  1.95995212E-01
 -5.87820622E-02 -1.00887682E-01  2.04562392E-17 -1.27851495E-18 -2.75687722E-01
  3.58378171E-02 -1.08226929E-17  2.34862078E-19 -1.29507860E-01 -1.01910038E-01
 -1.01910038E-01  1.45113294E-02  0.00000000E+00 -1.28576863E-17  3.22101409E-19
  4.48345668E-02  1.42646568E-01 -1.68402351E-17  4.13882797E-19  3.58447260E-01
  1.36776323E-01 -1.84025761E-17  4.79525246E-19  3.11038741E-01  1.27280941E-01
  1.27280941E-01  3.93279704E-02  1.44676676E-32  3.80444050E-18 -8.93562918E-20
  5.03491187E-19 -3.13635988E-18 -1.24728624E-16 -2.15650224E-17 -7.04146140E-03