iPr_transform_new_1 0.0                                                 
SP        RB3LYP                                                      6-31G(d)            
Number of atoms                            I               11
Info1-9                                    I   N=           9
          20          20           0           0           0         110
           1          18        -502
Full Title                                 C   N=           2
iPr_transform_new_1 0.0 
Route                                      C   N=           2
# nosymm b3lyp/6-31G*   
Charge                                     I                0
Multiplicity                               I                1
Number of electrons                        I               26
Number of alpha electrons                  I               13
Number of beta electrons                   I               13
Number of basis functions                  I               61
Number of independent functions            I               61
Number of point charges in /Mol/           I                0
Number of translation vectors              I                0
Atomic numbers                             I   N=          11
           1           6           1           6           1           1
           1           6           1           1           1
Nuclear charges                            R   N=          11
  1.00000000E+00  6.00000000E+00  1.00000000E+00  6.00000000E+00  1.00000000E+00
  1.00000000E+00  1.00000000E+00  6.00000000E+00  1.00000000E+00  1.00000000E+00
  1.00000000E+00
Current cartesian coordinates              R   N=          33
  0.00000000E+00  0.00000000E+00  0.00000000E+00  0.00000000E+00  0.00000000E+00
  2.07870968E+00 -1.95089920E+00  0.00000000E+00  2.77789771E+00  1.36295234E+00
 -2.37850379E+00  3.04246562E+00  1.36296325E+00 -2.37850379E+00  5.12115986E+00
  3.87504990E-01 -4.07553454E+00  2.36216085E+00  3.34060183E+00 -2.37850379E+00
  2.36216981E+00  1.36295234E+00  2.37850379E+00  3.04246562E+00  1.36296325E+00
  2.37850379E+00  5.12115986E+00  3.34060183E+00  2.37850379E+00  2.36216981E+00
  3.87504990E-01  4.07553454E+00  2.36216085E+00
Number of symbols in /Mol/                 I                0
Force Field                                I                0
Atom Types                                 C   N=          11
                                                            
                                                            
            
Int Atom Types                             I   N=          11
           0           0           0           0           0           0
           0           0           0           0           0
MM charges                                 R   N=          11
  0.00000000E+00  0.00000000E+00  0.00000000E+00  0.00000000E+00  0.00000000E+00
  0.00000000E+00  0.00000000E+00  0.00000000E+00  0.00000000E+00  0.00000000E+00
  0.00000000E+00
Integer atomic weights                     I   N=          11
           1          12           1          12           1           1
           1          12           1           1           1
Real atomic weights                        R   N=          11
  1.00782504E+00  1.20000000E+01  1.00782504E+00  1.20000000E+01  1.00782504E+00
  1.00782504E+00  1.00782504E+00  1.20000000E+01  1.00782504E+00  1.00782504E+00
  1.00782504E+00
Atom fragment info                         I   N=          11
           0           0           0           0           0           0
           0           0           0           0           0
Atom residue num                           I   N=          11
           0           0           0           0           0           0
           0           0           0           0           0
Nuclear spins                              I   N=          11
           1           0           1           0           1           1
           1           0           1           1           1
Nuclear ZEff                               R   N=          11
 -1.00000000E+00 -3.60000000E+00 -1.00000000E+00 -3.60000000E+00 -1.00000000E+00
 -1.00000000E+00 -1.00000000E+00 -3.60000000E+00 -1.00000000E+00 -1.00000000E+00
 -1.00000000E+00
Nuclear ZNuc                               R   N=          11
  1.00000000E+00  6.00000000E+00  1.00000000E+00  6.00000000E+00  1.00000000E+00
  1.00000000E+00  1.00000000E+00  6.00000000E+00  1.00000000E+00  1.00000000E+00
  1.00000000E+00
Nuclear QMom                               R   N=          11
  0.00000000E+00  0.00000000E+00  0.00000000E+00  0.00000000E+00  0.00000000E+00
  0.00000000E+00  0.00000000E+00  0.00000000E+00  0.00000000E+00  0.00000000E+00
  0.00000000E+00
Nuclear GFac                               R   N=          11
  2.79284600E+00  0.00000000E+00  2.79284600E+00  0.00000000E+00  2.79284600E+00
  2.79284600E+00  2.79284600E+00  0.00000000E+00  2.79284600E+00  2.79284600E+00
  2.79284600E+00
MicOpt                                     I   N=          11
          -1          -1          -1          -1          -1          -1
          -1          -1          -1          -1          -1
Number of residues                         I                0
Number of secondary structures             I                0
Number of contracted shells                I               28
Number of primitive shells                 I               65
Pure/Cartesian d shells                    I                1
Pure/Cartesian f shells                    I                0
Highest angular momentum                   I                2
Largest degree of contraction              I                6
Shell types                                I   N=          28
           0           0           0          -1          -1           2
           0           0           0          -1          -1           2
           0           0           0           0           0           0
           0          -1          -1           2           0           0
           0           0           0           0
Number of primitives per shell             I   N=          28
           3           1           6           3           1           1
           3           1           6           3           1           1
           3           1           3           1           3           1
           6           3           1           1           3           1
           3           1           3           1
Shell to atom map                          I   N=          28
           1           1           2           2           2           2
           3           3           4           4           4           4
           5           5           6           6           7           7
           8           8           8           8           9           9
          10          10          11          11
Primitive exponents                        R   N=          65
  1.87311370E+01  2.82539436E+00  6.40121692E-01  1.61277759E-01  3.04752488E+03
  4.57369518E+02  1.03948685E+02  2.92101553E+01  9.28666296E+00  3.16392696E+00
  7.86827235E+00  1.88128854E+00  5.44249258E-01  1.68714478E-01  8.00000000E-01
  1.87311370E+01  2.82539436E+00  6.40121692E-01  1.61277759E-01  3.04752488E+03
  4.57369518E+02  1.03948685E+02  2.92101553E+01  9.28666296E+00  3.16392696E+00
  7.86827235E+00  1.88128854E+00  5.44249258E-01  1.68714478E-01  8.00000000E-01
  1.87311370E+01  2.82539436E+00  6.40121692E-01  1.61277759E-01  1.87311370E+01
  2.82539436E+00  6.40121692E-01  1.61277759E-01  1.87311370E+01  2.82539436E+00
  6.40121692E-01  1.61277759E-01  3.04752488E+03  4.57369518E+02  1.03948685E+02
  2.92101553E+01  9.28666296E+00  3.16392696E+00  7.86827235E+00  1.88128854E+00
  5.44249258E-01  1.68714478E-01  8.00000000E-01  1.87311370E+01  2.82539436E+00
  6.40121692E-01  1.61277759E-01  1.87311370E+01  2.82539436E+00  6.40121692E-01
  1.61277759E-01  1.87311370E+01  2.82539436E+00  6.40121692E-01  1.61277759E-01
Contraction coefficients                   R   N=          65
  3.34946043E-02  2.34726953E-01  8.13757326E-01  1.00000000E+00  1.83473713E-03
  1.40373228E-02  6.88426223E-02  2.32184443E-01  4.67941348E-01  3.62311985E-01
 -1.19332420E-01 -1.60854152E-01  1.14345644E+00  1.00000000E+00  1.00000000E+00
  3.34946043E-02  2.34726953E-01  8.13757326E-01  1.00000000E+00  1.83473713E-03
  1.40373228E-02  6.88426223E-02  2.32184443E-01  4.67941348E-01  3.62311985E-01
 -1.19332420E-01 -1.60854152E-01  1.14345644E+00  1.00000000E+00  1.00000000E+00
  3.34946043E-02  2.34726953E-01  8.13757326E-01  1.00000000E+00  3.34946043E-02
  2.34726953E-01  8.13757326E-01  1.00000000E+00  3.34946043E-02  2.34726953E-01
  8.13757326E-01  1.00000000E+00  1.83473713E-03  1.40373228E-02  6.88426223E-02
  2.32184443E-01  4.67941348E-01  3.62311985E-01 -1.19332420E-01 -1.60854152E-01
  1.14345644E+00  1.00000000E+00  1.00000000E+00  3.34946043E-02  2.34726953E-01
  8.13757326E-01  1.00000000E+00  3.34946043E-02  2.34726953E-01  8.13757326E-01
  1.00000000E+00  3.34946043E-02  2.34726953E-01  8.13757326E-01  1.00000000E+00
P(S=P) Contraction coefficients            R   N=          65
  0.00000000E+00  0.00000000E+00  0.00000000E+00  0.00000000E+00  0.00000000E+00
  0.00000000E+00  0.00000000E+00  0.00000000E+00  0.00000000E+00  0.00000000E+00
  6.89990666E-02  3.16423961E-01  7.44308291E-01  1.00000000E+00  0.00000000E+00
  0.00000000E+00  0.00000000E+00  0.00000000E+00  0.00000000E+00  0.00000000E+00
  0.00000000E+00  0.00000000E+00  0.00000000E+00  0.00000000E+00  0.00000000E+00
  6.89990666E-02  3.16423961E-01  7.44308291E-01  1.00000000E+00  0.00000000E+00
  0.00000000E+00  0.00000000E+00  0.00000000E+00  0.00000000E+00  0.00000000E+00
  0.00000000E+00  0.00000000E+00  0.00000000E+00  0.00000000E+00  0.00000000E+00
  0.00000000E+00  0.00000000E+00  0.00000000E+00  0.00000000E+00  0.00000000E+00
  0.00000000E+00  0.00000000E+00  0.00000000E+00  6.89990666E-02  3.16423961E-01
  7.44308291E-01  1.00000000E+00  0.00000000E+00  0.00000000E+00  0.00000000E+00
  0.00000000E+00  0.00000000E+00  0.00000000E+00  0.00000000E+00  0.00000000E+00
  0.00000000E+00  0.00000000E+00  0.00000000E+00  0.00000000E+00  0.00000000E+00
Coordinates of each shell                  R   N=          84
  0.00000000E+00  0.00000000E+00  0.00000000E+00  0.00000000E+00  0.00000000E+00
  0.00000000E+00  0.00000000E+00  0.00000000E+00  2.07870968E+00  0.00000000E+00
  0.00000000E+00  2.07870968E+00  0.00000000E+00  0.00000000E+00  2.07870968E+00
  0.00000000E+00  0.00000000E+00  2.07870968E+00 -1.95089920E+00  0.00000000E+00
  2.77789771E+00 -1.95089920E+00  0.00000000E+00  2.77789771E+00  1.36295234E+00
 -2.37850379E+00  3.04246562E+00  1.36295234E+00 -2.37850379E+00  3.04246562E+00
  1.36295234E+00 -2.37850379E+00  3.04246562E+00  1.36295234E+00 -2.37850379E+00
  3.04246562E+00  1.36296325E+00 -2.37850379E+00  5.12115986E+00  1.36296325E+00
 -2.37850379E+00  5.12115986E+00  3.87504990E-01 -4.07553454E+00  2.36216085E+00
  3.87504990E-01 -4.07553454E+00  2.36216085E+00  3.34060183E+00 -2.37850379E+00
  2.36216981E+00  3.34060183E+00 -2.37850379E+00  2.36216981E+00  1.36295234E+00
  2.37850379E+00  3.04246562E+00  1.36295234E+00  2.37850379E+00  3.04246562E+00
  1.36295234E+00  2.37850379E+00  3.04246562E+00  1.36295234E+00  2.37850379E+00
  3.04246562E+00  1.36296325E+00  2.37850379E+00  5.12115986E+00  1.36296325E+00
  2.37850379E+00  5.12115986E+00  3.34060183E+00  2.37850379E+00  2.36216981E+00
  3.34060183E+00  2.37850379E+00  2.36216981E+00  3.87504990E-01  4.07553454E+00
  2.36216085E+00  3.87504990E-01  4.07553454E+00  2.36216085E+00
Num ILSW                                   I              100
ILSW                                       I   N=         100
           0           1           0           0           2           0
           0           0           0           0         402          -1
           5           0           0           0           0           0
           0           0           1           0           0           0
           1           1           0           0           0           0
           0           0      100000           0          -1           0
           0           0           0           0           0           0
           0           0           0           1           0           0
           0 -2000000000           1           0           0           0
           0           0           4          52           0           0
           0           0           5           0           0           0
           0           0           0           0           0           1
           0           0           0           0           0           0
           0           0           0           0           0           0
           0           0           0           0           0           0
           0           0           0           0           0           0
           0           0           0           0
Num RLSW                                   I               52
RLSW                                       R   N=          52
  8.00000000E-01  7.20000000E-01  1.00000000E+00  8.10000000E-01  2.00000000E-01
  0.00000000E+00  0.00000000E+00  1.00000000E+00  0.00000000E+00  0.00000000E+00
  0.00000000E+00  0.00000000E+00  1.00000000E+00  0.00000000E+00  0.00000000E+00
  0.00000000E+00  0.00000000E+00  1.00000000E+00  0.00000000E+00  0.00000000E+00
  0.00000000E+00  0.00000000E+00  1.00000000E+00  0.00000000E+00  0.00000000E+00
  0.00000000E+00  0.00000000E+00  1.00000000E+00  0.00000000E+00  0.00000000E+00
  0.00000000E+00  0.00000000E+00  1.00000000E+00  0.00000000E+00  0.00000000E+00
  0.00000000E+00  0.00000000E+00  0.00000000E+00  1.00000000E+00  1.00000000E+00
  0.00000000E+00  1.00000000E+00  0.00000000E+00  0.00000000E+00  0.00000000E+00
  0.00000000E+00  0.00000000E+00  0.00000000E+00  0.00000000E+00  0.00000000E+00
  0.00000000E+00  0.00000000E+00
MxBond                                     I                4
NBond                                      I   N=          11
           1           4           1           4           1           1
           1           4           1           1           1
IBond                                      I   N=          44
           2           0           0           0           1           3
           4           8           2           0           0           0
           2           5           6           7           4           0
           0           0           4           0           0           0
           4           0           0           0           2           9
          10          11           8           0           0           0
           8           0           0           0           8           0
           0           0
RBond                                      R   N=          44
  1.00000000E+00  0.00000000E+00  0.00000000E+00  0.00000000E+00  1.00000000E+00
  1.00000000E+00  1.00000000E+00  1.00000000E+00  1.00000000E+00  0.00000000E+00
  0.00000000E+00  0.00000000E+00  1.00000000E+00  1.00000000E+00  1.00000000E+00
  1.00000000E+00  1.00000000E+00  0.00000000E+00  0.00000000E+00  0.00000000E+00
  1.00000000E+00  0.00000000E+00  0.00000000E+00  0.00000000E+00  1.00000000E+00
  0.00000000E+00  0.00000000E+00  0.00000000E+00  1.00000000E+00  1.00000000E+00
  1.00000000E+00  1.00000000E+00  1.00000000E+00  0.00000000E+00  0.00000000E+00
  0.00000000E+00  1.00000000E+00  0.00000000E+00  0.00000000E+00  0.00000000E+00
  1.00000000E+00  0.00000000E+00  0.00000000E+00  0.00000000E+00
Virial Ratio                               R      2.010924267919594E+00
SCF Energy                                 R     -1.191427504593286E+02
Total Energy                               R     -1.191427504593286E+02
RMS Density                                R      2.590961517298708E-09
Job Status                                 I                1
Nuclear derivative order                   I                0
External E-field                           R   N=          35
  0.00000000E+00  0.00000000E+00  0.00000000E+00  0.00000000E+00  0.00000000E+00
  0.00000000E+00  0.00000000E+00  0.00000000E+00  0.00000000E+00  0.00000000E+00
  0.00000000E+00  0.00000000E+00  0.00000000E+00  0.00000000E+00  0.00000000E+00
  0.00000000E+00  0.00000000E+00  0.00000000E+00  0.00000000E+00  0.00000000E+00
  0.00000000E+00  0.00000000E+00  0.00000000E+00  0.00000000E+00  0.00000000E+00
  0.00000000E+00  0.00000000E+00  0.00000000E+00  0.00000000E+00  0.00000000E+00
  0.00000000E+00  0.00000000E+00  0.00000000E+00  0.00000000E+00  0.00000000E+00
IOpCl                                      I                0
IROHF                                      I                0
Alpha Orbital Energies                     R   N=          61
 -1.01775986E+01 -1.01709862E+01 -1.01709751E+01 -7.74562053E-01 -6.71689562E-01
 -5.76574011E-01 -4.56014875E-01 -4.31198823E-01 -3.91656346E-01 -3.76181840E-01
 -3.31738979E-01 -3.29287798E-01 -3.25625896E-01  9.31528486E-02  1.45019046E-01
  1.49072175E-01  1.51131590E-01  1.70443800E-01  1.92059311E-01  1.97794622E-01
  1.98890771E-01  2.24473366E-01  2.58093511E-01  5.19181333E-01  5.21885506E-01
  5.52091039E-01  5.57969377E-01  5.81934868E-01  6.62126646E-01  6.97998401E-01
  7.36731602E-01  7.82500562E-01  8.70958149E-01  8.78152939E-01  8.94916907E-01
  9.15841473E-01  9.16273946E-01  9.62497860E-01  9.67671718E-01  9.80219385E-01
  1.03719644E+00  1.40928607E+00  1.46000165E+00  1.46246530E+00  1.56508289E+00
  1.76029134E+00  1.91155152E+00  1.92121132E+00  1.97955324E+00  2.05090532E+00
  2.11925444E+00  2.22210067E+00  2.24978557E+00  2.32173294E+00  2.35593982E+00
  2.40907882E+00  2.54732063E+00  2.68226405E+00  4.13899647E+00  4.27709081E+00
  4.45948304E+00
Alpha MO coefficients                      R   N=        3721
  3.27045198E-05  2.77773686E-03  9.92814743E-01  4.99653744E-02  6.10665717E-05
 -3.84433233E-16  5.06325981E-05 -1.94594411E-02 -1.19375140E-03  2.25349418E-15
 -8.68135500E-04 -8.86663750E-03 -9.00443454E-03 -8.82002460E-03  4.93375042E-16
 -8.11281309E-05  2.96587843E-16  3.12259283E-05  2.80656261E-03  1.53450023E-02
  4.99578921E-04  7.03112698E-05 -2.68586127E-05  5.12455579E-05  4.74789126E-03
 -1.08680013E-03  1.84298897E-03 -7.66330307E-04 -3.38876822E-04 -4.31024093E-04
 -2.85247453E-04  1.42357856E-04 -8.75138430E-05  1.00859994E-04 -1.74557115E-04
  5.39406371E-05 -1.70310350E-04 -1.37479047E-04 -1.74435918E-04  5.39551959E-05
  1.53450023E-02  4.99578921E-04  7.03112698E-05  2.68586127E-05  5.12455579E-05
  4.74789126E-03 -1.08680013E-03 -1.84298897E-03 -7.66330307E-04 -3.38876822E-04
 -4.31024093E-04 -2.85247453E-04 -1.42357856E-04 -8.75138430E-05 -1.00859994E-04
 -1.74557115E-04  5.39406371E-05 -1.74435918E-04  5.39551959E-05 -1.70310350E-04
 -1.37479047E-04 -7.48707695E-14  4.75695195E-15 -7.87877236E-12 -4.85084878E-13
 -3.99973940E-14  1.07509296E-04 -2.82760778E-14  2.07490052E-12  4.19359258E-13
 -2.62994767E-03  3.02101478E-13 -2.11646778E-14 -8.33410249E-14  4.77642320E-15
  1.48127241E-04 -4.11134008E-14  1.02905438E-04 -7.52306157E-14  9.29914108E-16
  7.02154967E-01  3.54742313E-02  4.60457802E-05  1.37850806E-04  4.14649545E-05
 -1.25924899E-02  1.52776151E-05 -1.20292443E-03 -2.58254646E-05 -6.36880071E-03
 -6.45132508E-03 -6.34541171E-03  4.98053334E-05 -3.23473668E-05  3.46060327E-05
  2.83117610E-05  2.22355871E-03 -5.63736813E-05  1.45321087E-03  3.04853887E-05
  2.18023887E-03 -7.02154966E-01 -3.54742312E-02 -4.60457802E-05  1.37850806E-04
 -4.14649545E-05  1.25924898E-02 -1.52776147E-05 -1.20292443E-03  2.58254648E-05
  6.36880070E-03  6.45132508E-03  6.34541171E-03  4.98053333E-05  3.23473668E-05
  3.46060327E-05 -2.83117610E-05 -2.22355871E-03 -3.04853887E-05 -2.18023887E-03
  5.63736813E-05 -1.45321087E-03 -2.15210711E-04  2.34347960E-06 -2.20230215E-02
 -1.37175190E-03 -1.12590012E-04 -3.76096226E-14 -7.92930385E-05  5.96267676E-03
  1.19924739E-03  9.28342941E-13  8.61810204E-04 -6.57420176E-05 -2.41815610E-04
  5.89009627E-06 -5.23987167E-14 -1.16137727E-04 -3.63092258E-14 -2.15587116E-04
 -6.98055758E-06  7.01901682E-01  3.50549696E-02 -1.24550994E-05 -6.54680203E-05
  6.74169163E-07 -1.13850806E-02  4.77274623E-04 -3.33729998E-04  3.01399766E-04
 -6.49224105E-03 -6.48680843E-03 -6.49077609E-03  6.02064437E-05  4.55183258E-06
  4.17978415E-05 -7.39996091E-05  1.72728462E-03 -6.68580051E-05  2.11794515E-03
 -7.34094781E-05  1.69215340E-03  7.01901682E-01  3.50549696E-02 -1.24550993E-05
  6.54680202E-05  6.74169193E-07 -1.13850806E-02  4.77274623E-04  3.33729999E-04
  3.01399766E-04 -6.49224105E-03 -6.48680844E-03 -6.49077609E-03 -6.02064437E-05
  4.55183256E-06 -4.17978415E-05 -7.39996091E-05  1.72728462E-03 -7.34094781E-05
  1.69215341E-03 -6.68580051E-05  2.11794515E-03  7.82486511E-02  1.42928388E-02
 -1.45430967E-01  2.76053870E-01  3.54560226E-02 -1.35492113E-15  2.59492532E-02
  2.20930537E-01  4.21363697E-03 -8.03383884E-15  3.38004516E-03 -8.92261696E-04
  1.00497187E-03 -1.40830930E-03  5.44420445E-16  8.10978531E-04  1.40048198E-16
  7.90545438E-02  1.43271043E-02 -1.09579395E-01  2.06593820E-01 -2.27534586E-02
  5.13026941E-02 -1.50135938E-02  1.70300921E-01 -3.48908816E-03  9.40171193E-03
 -2.21381910E-03 -4.49978978E-04  3.63784124E-03 -1.01942103E-03 -2.69152316E-03
  9.46665351E-04 -1.91000286E-03  6.11700539E-02  1.27853039E-02  5.71531288E-02
  1.04831476E-02  6.01374391E-02  1.26898884E-02 -1.09579395E-01  2.06593820E-01
 -2.27534586E-02 -5.13026941E-02 -1.50135938E-02  1.70300921E-01 -3.48908816E-03
 -9.40171193E-03 -2.21381910E-03 -4.49978978E-04  3.63784124E-03 -1.01942103E-03
  2.69152316E-03  9.46665351E-04  1.91000286E-03  6.11700539E-02  1.27853039E-02
  6.01374391E-02  1.26898884E-02  5.71531288E-02  1.04831476E-02  5.59185559E-16
  5.25240250E-14  9.33687594E-15  3.07297865E-14  7.23807990E-16 -1.44288278E-01
  7.91184141E-16 -2.06692765E-13 -7.94833365E-15 -3.94384945E-02  1.02919893E-15
  9.45749488E-15  7.38385191E-15  8.91506522E-15 -1.14995651E-02 -3.45791814E-16
 -8.22687824E-03  1.60072765E-15  3.63960050E-14 -1.41573149E-01  2.74266773E-01
 -2.53280598E-03 -2.65878242E-02  1.16799220E-04  2.61462417E-01  1.83530544E-03
 -1.30024059E-02  1.88906340E-03  8.47779824E-04 -3.98022073E-03  1.34246637E-03
  3.38118740E-03 -7.23141523E-04  2.31185847E-03  9.65660113E-02  2.66205798E-02
  1.06786457E-01  3.17311069E-02  9.49077050E-02  2.63991583E-02  1.41573149E-01
 -2.74266773E-01  2.53280598E-03 -2.65878242E-02 -1.16799220E-04 -2.61462417E-01
 -1.83530544E-03 -1.30024059E-02 -1.88906340E-03 -8.47779824E-04  3.98022073E-03
 -1.34246637E-03  3.38118740E-03  7.23141523E-04  2.31185847E-03 -9.65660113E-02
 -2.66205798E-02 -9.49077050E-02 -2.63991583E-02 -1.06786457E-01 -3.17311069E-02
  1.39345787E-01  6.01740636E-02 -1.31286492E-01  2.65156525E-01 -1.11145447E-01
 -4.75059185E-15 -7.78417495E-02  2.72639603E-01 -4.08500361E-02 -2.75883399E-14
 -2.89284002E-02  5.96741006E-04 -1.54058168E-02  5.22604877E-03 -9.54972168E-16
 -7.82060599E-03 -7.68029687E-16  1.40120415E-01  6.05369926E-02  8.06526662E-02
 -1.60510130E-01 -8.39849070E-02  8.86908276E-02 -6.12520835E-02 -1.71195049E-01
 -3.11709899E-02  2.63164853E-02 -2.23877347E-02 -2.57226383E-04  6.68615828E-03
 -3.32164898E-03 -9.37765498E-03  4.79422500E-03 -6.53741748E-03 -9.33089448E-02
 -4.30953187E-02 -7.01480094E-02 -3.24024654E-02 -9.19843315E-02 -4.25657003E-02
  8.06526662E-02 -1.60510130E-01 -8.39849070E-02 -8.86908276E-02 -6.12520835E-02
 -1.71195049E-01 -3.11709899E-02 -2.63164853E-02 -2.23877347E-02 -2.57226383E-04
  6.68615828E-03 -3.32164898E-03  9.37765498E-03  4.79422500E-03  6.53741748E-03
 -9.33089448E-02 -4.30953187E-02 -9.19843315E-02 -4.25657003E-02 -7.01480094E-02
 -3.24024654E-02 -1.43007038E-01 -1.01377740E-01  3.93903147E-04 -8.87187897E-04
 -1.81570146E-01  1.47208669E-15  2.51667069E-01 -1.13153640E-03 -7.93452364E-02
 -1.64590531E-14  1.11096825E-01  7.43569571E-03 -4.63695918E-05 -7.30632020E-03
 -2.22451904E-16 -3.26082008E-03 -1.12347103E-15  1.44944642E-01  1.03008017E-01
  3.93965276E-04 -7.60361133E-04 -1.31230926E-01 -2.48190016E-03  1.83870809E-01
 -1.54619423E-03 -5.67854685E-02 -1.23122749E-03  7.88922766E-02 -6.03290071E-03
 -5.76879675E-05  6.14041108E-03 -3.51731267E-03  2.34197722E-03  5.13073308E-03
  1.07115641E-01  8.15585072E-02  1.38194128E-03  7.41304429E-04 -1.07699156E-01
 -8.20578939E-02  3.93965276E-04 -7.60361133E-04 -1.31230926E-01  2.48190016E-03
  1.83870809E-01 -1.54619423E-03 -5.67854685E-02  1.23122749E-03  7.88922766E-02
 -6.03290071E-03 -5.76879675E-05  6.14041108E-03  3.51731267E-03  2.34197722E-03
 -5.13073308E-03  1.07115641E-01  8.15585072E-02 -1.07699156E-01 -8.20578939E-02
  1.38194128E-03  7.41304429E-04 -5.61306230E-02 -4.98204609E-02 -2.32216068E-02
  5.07599337E-02  1.80739819E-01  3.10568063E-15  1.32120383E-01  5.73550958E-02
  7.60495582E-02  2.81455882E-14  5.63513176E-02  2.02737258E-03 -6.99104607E-03
 -2.79631133E-03  6.61921877E-16  7.53225644E-03  6.99669090E-16 -5.24445125E-02
 -4.74359254E-02  1.20542489E-02 -2.33034426E-02  1.05729415E-01  2.64156035E-01
  7.68375211E-02 -3.63922648E-02  5.09962166E-02  1.18196429E-01  3.66244614E-02
 -1.41538797E-03 -2.03448977E-03  1.86344009E-03 -9.25034983E-03 -5.03885233E-03
 -6.26333989E-03  3.50642946E-02  3.02009552E-02 -1.85703093E-01 -1.39317535E-01
  3.36740702E-02  2.87700799E-02  1.20542489E-02 -2.33034426E-02  1.05729415E-01
 -2.64156035E-01  7.68375211E-02 -3.63922648E-02  5.09962166E-02 -1.18196429E-01
  3.66244614E-02 -1.41538797E-03 -2.03448977E-03  1.86344009E-03  9.25034983E-03
 -5.03885233E-03  6.26333989E-03  3.50642946E-02  3.02009552E-02  3.36740702E-02
  2.87700799E-02 -1.85703093E-01 -1.39317535E-01  1.10100985E-14  2.61329164E-14
  4.65527331E-15  2.45613127E-14 -1.40915388E-14  2.18907410E-01 -1.22801360E-14
 -1.58406223E-13 -3.79629486E-14  1.13299808E-01 -2.27934158E-14  5.30146438E-15
  2.10358649E-15  5.97570069E-15 -1.08940148E-04 -1.37370224E-15 -1.54109067E-04
  9.63290771E-15  1.95539342E-14 -6.33300189E-03  8.96747061E-03  2.54432136E-01
  2.60795004E-02  1.82851184E-01  3.98162386E-02  1.13869513E-01  9.81623813E-03
  8.15085603E-02  4.52331629E-03 -1.20123923E-02  1.00823255E-02 -2.96919811E-03
 -8.54534337E-03 -2.04776726E-03  1.21644414E-01  9.55281277E-02 -1.24446385E-01
 -1.11838612E-01  1.20106182E-01  9.42777120E-02  6.33300189E-03 -8.96747061E-03
 -2.54432136E-01  2.60795004E-02 -1.82851184E-01 -3.98162386E-02 -1.13869513E-01
  9.81623813E-03 -8.15085603E-02 -4.52331629E-03  1.20123923E-02 -1.00823255E-02
 -2.96919811E-03  8.54534337E-03 -2.04776726E-03 -1.21644414E-01 -9.55281277E-02
 -1.20106182E-01 -9.42777120E-02  1.24446385E-01  1.11838612E-01  8.53155275E-15
  2.85614481E-14 -1.10266390E-15 -2.79338314E-15  7.97535984E-15  8.37087729E-04
 -1.54824416E-14  2.71129678E-14  6.60233898E-15  7.10908947E-04  3.01097583E-14
 -1.26505658E-15  7.45470688E-16 -8.90204984E-16  7.57371802E-03  5.43377978E-16
 -1.05728792E-02 -9.14761905E-15 -1.68779255E-14  6.12191066E-04 -1.19461354E-03
 -1.87996458E-01 -8.26518618E-04  2.63145101E-01 -2.20121041E-03 -9.56050421E-02
 -2.18102076E-04  1.32979412E-01 -1.51515884E-02  4.27541956E-05  1.51335352E-02
  7.93627406E-04  5.92979748E-03 -9.98405332E-04  1.70900254E-01  1.40178861E-01
  8.35754926E-04  5.25434051E-04 -1.72402395E-01 -1.41630558E-01 -6.12191066E-04
  1.19461354E-03  1.87996458E-01 -8.26518618E-04 -2.63145101E-01  2.20121041E-03
  9.56050421E-02 -2.18102076E-04 -1.32979412E-01  1.51515884E-02 -4.27541957E-05
 -1.51335352E-02  7.93627406E-04 -5.92979748E-03 -9.98405332E-04 -1.70900254E-01
 -1.40178861E-01  1.72402395E-01  1.41630558E-01 -8.35754926E-04 -5.25434051E-04
 -1.22864552E-01 -1.28369337E-01 -1.25174176E-02  3.40788977E-02  2.99742269E-01
  5.05202045E-15  1.84348189E-01  2.91217415E-02  1.40775225E-01  8.35930477E-15
  8.79511950E-02 -1.44413442E-02  2.06327267E-02 -1.41420871E-02  6.99834804E-16
  5.54676599E-03 -1.40646947E-16 -1.49465668E-01 -1.55900457E-01 -1.79522496E-02
  3.80423422E-02 -2.20593627E-01  7.73407882E-02 -1.38958629E-01  7.47351603E-02
 -1.10082646E-01  3.50416740E-02 -7.04163066E-02 -1.11617255E-02  1.61349342E-02
 -1.08190964E-02  2.11272125E-03  3.60750386E-03  9.72528842E-04 -8.81053583E-02
 -1.03009378E-01  8.45990624E-02  7.13665992E-02 -1.07264137E-01 -1.24052402E-01
 -1.79522496E-02  3.80423422E-02 -2.20593627E-01 -7.73407882E-02 -1.38958629E-01
  7.47351603E-02 -1.10082646E-01 -3.50416740E-02 -7.04163066E-02 -1.11617255E-02
  1.61349342E-02 -1.08190964E-02 -2.11272125E-03  3.60750386E-03 -9.72528842E-04
 -8.81053583E-02 -1.03009378E-01 -1.07264137E-01 -1.24052402E-01  8.45990624E-02
  7.13665992E-02 -2.07618455E-01 -2.15482104E-01 -6.61438615E-04  2.01897838E-03
 -1.67163878E-01 -3.14552104E-14  2.78703871E-01  9.66416950E-04 -7.11793153E-02
 -4.31210780E-14  1.21094765E-01  2.32173747E-02  1.43667468E-03 -2.52288948E-02
 -2.01921870E-15 -9.68193724E-03 -1.63751469E-15  1.88570469E-01  1.95501181E-01
 -1.43426635E-03  2.92598230E-03  1.04364066E-01  4.22128031E-03 -1.79057661E-01
  6.35521184E-03  4.23944461E-02  1.86541775E-03 -7.55890790E-02  1.61752536E-02
  1.18322815E-03 -1.77401268E-02 -3.28768999E-03 -6.47214108E-03  5.00319475E-03
 -1.39342317E-01 -1.55599661E-01  6.59265166E-03  5.90645893E-03  1.25831632E-01
  1.40226292E-01 -1.43426635E-03  2.92598230E-03  1.04364066E-01 -4.22128031E-03
 -1.79057661E-01  6.35521184E-03  4.23944461E-02 -1.86541775E-03 -7.55890790E-02
  1.61752536E-02  1.18322815E-03 -1.77401268E-02  3.28768999E-03 -6.47214108E-03
 -5.00319475E-03 -1.39342317E-01 -1.55599661E-01  1.25831632E-01  1.40226292E-01
  6.59265166E-03  5.90645893E-03 -1.95136775E-14 -3.81899806E-14 -1.80603629E-15
 -1.05861832E-14 -7.46217459E-15  3.47166011E-01  2.81771031E-14  3.83328392E-14
 -3.27957902E-14  1.50818787E-01  6.15450079E-15  1.93184003E-15 -1.39772002E-15
 -2.46411258E-15  1.35453781E-02 -1.04321187E-15  9.69859690E-03  1.51382481E-14