Me_transform_new_1 0.0                                                  
SP        RB3LYP                                                      6-31G(d)            
Number of atoms                            I                5
Info1-9                                    I   N=           9
          14          14           0           0           0         110
           1          18        -502
Full Title                                 C   N=           2
Me_transform_new_1 0.0  
Route                                      C   N=           2
# nosymm b3lyp/6-31G*   
Charge                                     I                0
Multiplicity                               I                1
Number of electrons                        I               10
Number of alpha electrons                  I                5
Number of beta electrons                   I                5
Number of basis functions                  I               23
Number of independent functions            I               23
Number of point charges in /Mol/           I                0
Number of translation vectors              I                0
Atomic numbers                             I   N=           5
           1           6           1           1           1
Nuclear charges                            R   N=           5
  1.00000000E+00  6.00000000E+00  1.00000000E+00  1.00000000E+00  1.00000000E+00
Current cartesian coordinates              R   N=          15
  0.00000000E+00  0.00000000E+00  0.00000000E+00  0.00000000E+00  0.00000000E+00
  2.07869874E+00  1.37950007E+00 -1.37950007E+00  2.77789740E+00 -1.88972612E+00
 -5.10226054E-01  2.77789740E+00  5.10226054E-01  1.88972612E+00  2.77789740E+00
Number of symbols in /Mol/                 I                0
Force Field                                I                0
Atom Types                                 C   N=           5
                                                            
Int Atom Types                             I   N=           5
           0           0           0           0           0
MM charges                                 R   N=           5
  0.00000000E+00  0.00000000E+00  0.00000000E+00  0.00000000E+00  0.00000000E+00
Integer atomic weights                     I   N=           5
           1          12           1           1           1
Real atomic weights                        R   N=           5
  1.00782504E+00  1.20000000E+01  1.00782504E+00  1.00782504E+00  1.00782504E+00
Atom fragment info                         I   N=           5
           0           0           0           0           0
Atom residue num                           I   N=           5
           0           0           0           0           0
Nuclear spins                              I   N=           5
           1           0           1           1           1
Nuclear ZEff                               R   N=           5
 -1.00000000E+00 -3.60000000E+00 -1.00000000E+00 -1.00000000E+00 -1.00000000E+00
Nuclear ZNuc                               R   N=           5
  1.00000000E+00  6.00000000E+00  1.00000000E+00  1.00000000E+00  1.00000000E+00
Nuclear QMom                               R   N=           5
  0.00000000E+00  0.00000000E+00  0.00000000E+00  0.00000000E+00  0.00000000E+00
Nuclear GFac                               R   N=           5
  2.79284600E+00  0.00000000E+00  2.79284600E+00  2.79284600E+00  2.79284600E+00
MicOpt                                     I   N=           5
          -1          -1          -1          -1          -1
Number of residues                         I                0
Number of secondary structures             I                0
Number of contracted shells                I               12
Number of primitive shells                 I               27
Pure/Cartesian d shells                    I                1
Pure/Cartesian f shells                    I                0
Highest angular momentum                   I                2
Largest degree of contraction              I                6
Shell types                                I   N=          12
           0           0           0          -1          -1           2
           0           0           0           0           0           0
Number of primitives per shell             I   N=          12
           3           1           6           3           1           1
           3           1           3           1           3           1
Shell to atom map                          I   N=          12
           1           1           2           2           2           2
           3           3           4           4           5           5
Primitive exponents                        R   N=          27
  1.87311370E+01  2.82539436E+00  6.40121692E-01  1.61277759E-01  3.04752488E+03
  4.57369518E+02  1.03948685E+02  2.92101553E+01  9.28666296E+00  3.16392696E+00
  7.86827235E+00  1.88128854E+00  5.44249258E-01  1.68714478E-01  8.00000000E-01
  1.87311370E+01  2.82539436E+00  6.40121692E-01  1.61277759E-01  1.87311370E+01
  2.82539436E+00  6.40121692E-01  1.61277759E-01  1.87311370E+01  2.82539436E+00
  6.40121692E-01  1.61277759E-01
Contraction coefficients                   R   N=          27
  3.34946043E-02  2.34726953E-01  8.13757326E-01  1.00000000E+00  1.83473713E-03
  1.40373228E-02  6.88426223E-02  2.32184443E-01  4.67941348E-01  3.62311985E-01
 -1.19332420E-01 -1.60854152E-01  1.14345644E+00  1.00000000E+00  1.00000000E+00
  3.34946043E-02  2.34726953E-01  8.13757326E-01  1.00000000E+00  3.34946043E-02
  2.34726953E-01  8.13757326E-01  1.00000000E+00  3.34946043E-02  2.34726953E-01
  8.13757326E-01  1.00000000E+00
P(S=P) Contraction coefficients            R   N=          27
  0.00000000E+00  0.00000000E+00  0.00000000E+00  0.00000000E+00  0.00000000E+00
  0.00000000E+00  0.00000000E+00  0.00000000E+00  0.00000000E+00  0.00000000E+00
  6.89990666E-02  3.16423961E-01  7.44308291E-01  1.00000000E+00  0.00000000E+00
  0.00000000E+00  0.00000000E+00  0.00000000E+00  0.00000000E+00  0.00000000E+00
  0.00000000E+00  0.00000000E+00  0.00000000E+00  0.00000000E+00  0.00000000E+00
  0.00000000E+00  0.00000000E+00
Coordinates of each shell                  R   N=          36
  0.00000000E+00  0.00000000E+00  0.00000000E+00  0.00000000E+00  0.00000000E+00
  0.00000000E+00  0.00000000E+00  0.00000000E+00  2.07869874E+00  0.00000000E+00
  0.00000000E+00  2.07869874E+00  0.00000000E+00  0.00000000E+00  2.07869874E+00
  0.00000000E+00  0.00000000E+00  2.07869874E+00  1.37950007E+00 -1.37950007E+00
  2.77789740E+00  1.37950007E+00 -1.37950007E+00  2.77789740E+00 -1.88972612E+00
 -5.10226054E-01  2.77789740E+00 -1.88972612E+00 -5.10226054E-01  2.77789740E+00
  5.10226054E-01  1.88972612E+00  2.77789740E+00  5.10226054E-01  1.88972612E+00
  2.77789740E+00
Num ILSW                                   I              100
ILSW                                       I   N=         100
           0           1           0           0           2           0
           0           0           0           0         402          -1
           5           0           0           0           0           0
           0           0           1           0           0           0
           1           1           0           0           0           0
           0           0      100000           0          -1           0
           0           0           0           0           0           0
           0           0           0           1           0           0
           0 -2000000000           1           0           0           0
           0           0           4          52           0           0
           0           0           5           0           0           0
           0           0           0           0           0           1
           0           0           0           0           0           0
           0           0           0           0           0           0
           0           0           0           0           0           0
           0           0           0           0           0           0
           0           0           0           0
Num RLSW                                   I               52
RLSW                                       R   N=          52
  8.00000000E-01  7.20000000E-01  1.00000000E+00  8.10000000E-01  2.00000000E-01
  0.00000000E+00  0.00000000E+00  1.00000000E+00  0.00000000E+00  0.00000000E+00
  0.00000000E+00  0.00000000E+00  1.00000000E+00  0.00000000E+00  0.00000000E+00
  0.00000000E+00  0.00000000E+00  1.00000000E+00  0.00000000E+00  0.00000000E+00
  0.00000000E+00  0.00000000E+00  1.00000000E+00  0.00000000E+00  0.00000000E+00
  0.00000000E+00  0.00000000E+00  1.00000000E+00  0.00000000E+00  0.00000000E+00
  0.00000000E+00  0.00000000E+00  1.00000000E+00  0.00000000E+00  0.00000000E+00
  0.00000000E+00  0.00000000E+00  0.00000000E+00  1.00000000E+00  1.00000000E+00
  0.00000000E+00  1.00000000E+00  0.00000000E+00  0.00000000E+00  0.00000000E+00
  0.00000000E+00  0.00000000E+00  0.00000000E+00  0.00000000E+00  0.00000000E+00
  0.00000000E+00  0.00000000E+00
MxBond                                     I                4
NBond                                      I   N=           5
           1           4           1           1           1
IBond                                      I   N=          20
           2           0           0           0           1           3
           4           5           2           0           0           0
           2           0           0           0           2           0
           0           0
RBond                                      R   N=          20
  1.00000000E+00  0.00000000E+00  0.00000000E+00  0.00000000E+00  1.00000000E+00
  1.00000000E+00  1.00000000E+00  1.00000000E+00  1.00000000E+00  0.00000000E+00
  0.00000000E+00  0.00000000E+00  1.00000000E+00  0.00000000E+00  0.00000000E+00
  0.00000000E+00  1.00000000E+00  0.00000000E+00  0.00000000E+00  0.00000000E+00
Virial Ratio                               R      2.011910775423252E+00
SCF Energy                                 R     -4.051828534110158E+01
Total Energy                               R     -4.051828534110158E+01
RMS Density                                R      8.204605939355043E-10
Job Status                                 I                1
Nuclear derivative order                   I                0
External E-field                           R   N=          35
  0.00000000E+00  0.00000000E+00  0.00000000E+00  0.00000000E+00  0.00000000E+00
  0.00000000E+00  0.00000000E+00  0.00000000E+00  0.00000000E+00  0.00000000E+00
  0.00000000E+00  0.00000000E+00  0.00000000E+00  0.00000000E+00  0.00000000E+00
  0.00000000E+00  0.00000000E+00  0.00000000E+00  0.00000000E+00  0.00000000E+00
  0.00000000E+00  0.00000000E+00  0.00000000E+00  0.00000000E+00  0.00000000E+00
  0.00000000E+00  0.00000000E+00  0.00000000E+00  0.00000000E+00  0.00000000E+00
  0.00000000E+00  0.00000000E+00  0.00000000E+00  0.00000000E+00  0.00000000E+00
IOpCl                                      I                0
IROHF                                      I                0
Alpha Orbital Energies                     R   N=          23
 -1.01693899E+01 -6.88524711E-01 -3.88752792E-01 -3.87908748E-01 -3.87608604E-01
  1.16460739E-01  1.74455588E-01  1.74500518E-01  1.75173038E-01  5.34094117E-01
  5.35303993E-01  5.35627451E-01  8.92763140E-01  8.92815807E-01  8.94241254E-01
  9.38979159E-01  1.09808150E+00  1.65752428E+00  1.65780374E+00  2.23357104E+00
  2.23480446E+00  2.23885472E+00  4.17490444E+00
Alpha MO coefficients                      R   N=         529
 -1.60602476E-04  2.55928950E-03  9.92819582E-01  4.96519701E-02  3.33779421E-06
 -3.33779421E-06  6.89440277E-06 -1.45141841E-02 -9.42071654E-06  9.42071654E-06
 -2.86377538E-05 -9.31816315E-03 -9.31816315E-03 -9.31602242E-03 -1.85914178E-06
  1.17699743E-06 -1.17699743E-06 -1.59156614E-04  2.59068264E-03 -1.56544903E-04
  2.57137229E-03 -1.56544903E-04  2.57137229E-03  1.33680259E-01  3.87711895E-02
 -1.98277891E-01  3.80023205E-01  6.77321300E-04 -6.77321300E-04  1.14197722E-03
  3.64478614E-01  1.55594596E-04 -1.55594596E-04  4.53224364E-04  1.39604060E-03
  1.39604060E-03  1.51639200E-03  1.30617554E-05  6.45572467E-05 -6.45572467E-05
  1.34950207E-01  3.88899581E-02  1.33959772E-01  3.87361420E-02  1.33959772E-01
  3.87361420E-02 -2.78309645E-01 -2.35799395E-01  5.56143107E-04 -1.12675787E-03
  9.99099255E-02 -9.99099255E-02  4.22228876E-01 -1.70802964E-03  4.80399680E-02
 -4.80399680E-02  2.03855580E-01  1.20880495E-02  1.20880495E-02 -2.41136801E-02
 -6.60321401E-03  3.42364011E-03 -3.42364011E-03  1.80261944E-01  1.52513679E-01
  4.88455152E-02  4.11524789E-02  4.88455152E-02  4.11524789E-02 -1.28528897E-14
 -1.12330421E-14 -2.99677692E-16  3.93663382E-16  3.14750305E-01  3.14750305E-01
  1.97503511E-14  5.88933718E-17  1.52247088E-01  1.52247088E-01  1.03993043E-14
 -1.79390116E-02  1.79390116E-02 -6.69174060E-16  6.12855039E-15  1.06051417E-02
  1.06051417E-02 -7.02563886E-14 -5.39150579E-14 -2.39354269E-01 -2.03431763E-01
  2.39354269E-01  2.03431763E-01  9.26983613E-02  7.86829719E-02  9.48882509E-05
 -1.14542712E-04  2.98849968E-01 -2.98849968E-01 -1.40837879E-01 -6.76097184E-04
  1.44392459E-01 -1.44392459E-01 -6.83291453E-02 -4.02570399E-03 -4.02570399E-03
  8.01781113E-03 -1.98803027E-02  1.00314825E-02 -1.00314825E-02  2.31085723E-01
  1.96512606E-01 -1.62206621E-01 -1.38088070E-01 -1.62206621E-01 -1.38088070E-01
 -2.23400688E-02 -9.87696012E-01 -1.63336952E-01  1.98343171E-01 -1.92147523E-03
  1.92147523E-03 -1.20565147E-03  2.57685039E+00 -3.90841742E-03  3.90841742E-03
 -3.05261398E-05 -1.25966302E-02 -1.25966302E-02 -1.28094077E-02 -1.28632309E-04
  8.17767956E-05 -8.17767956E-05 -1.94793768E-02 -9.74554109E-01 -2.13291310E-02
 -9.84821942E-01 -2.13291310E-02 -9.84821942E-01  9.96355526E-02  1.43459118E+00
  1.97918383E-04 -4.93019149E-04 -1.72223218E-01  1.72223218E-01  2.99895381E-01
 -2.85902396E-03 -5.99642188E-01  5.99642188E-01  1.04579409E+00 -7.56019622E-03
 -7.56019621E-03  1.51516278E-02 -1.00527471E-02  5.10022884E-03 -5.10022884E-03
  4.43271439E-02  6.22040738E-01 -7.14768497E-02 -1.02728913E+00 -7.14768496E-02
 -1.02728913E+00  1.51306494E-11  2.17845630E-10  2.70414657E-14 -7.95431780E-14
  2.73393396E-01  2.73393397E-01  4.55496470E-11 -3.53568485E-13  9.51616465E-01
  9.51616465E-01  1.58816667E-10  1.37484034E-02 -1.37484034E-02  2.29388630E-12
 -1.49215144E-12 -7.94842933E-03 -7.94842933E-03  6.46480247E-12  9.05424155E-11
  1.05086945E-01  1.50863738E+00 -1.05086945E-01 -1.50863738E+00 -8.10062094E-02
 -1.16112983E+00  1.05155747E-03 -4.43254395E-04 -2.11497110E-01  2.11497110E-01
 -2.44066825E-01 -2.99689795E-02 -7.39197906E-01  7.39197906E-01 -8.54399599E-01
  6.19657911E-03  6.19657911E-03 -1.20878226E-02 -1.22553251E-02  6.15413914E-03
 -6.15413914E-03  1.20083892E-01  1.75773632E+00 -2.10444689E-02 -2.76410217E-01
 -2.10444689E-02 -2.76410217E-01  4.63376315E-02  2.19158440E-02 -2.16477887E-04
 -3.28781157E-04 -5.40794784E-01  5.40794784E-01 -7.13378582E-02  7.90749793E-03
  1.01795366E+00 -1.01795366E+00  1.38931546E-01 -4.54905625E-03 -4.54905625E-03
  9.73813535E-03  8.29273934E-02 -4.18560706E-02  4.18560706E-02 -4.78596688E-01
 -2.14368748E-01  2.16383666E-01  9.10140646E-02  2.16383666E-01  9.10140646E-02
 -2.20530441E-12 -1.01599018E-12  4.71438492E-17  9.51702580E-15 -5.44417078E-01
 -5.44417078E-01  3.44306777E-12 -4.54699750E-14  1.02650832E+00  1.02650832E+00
 -6.51855892E-12  7.23922842E-02 -7.23922842E-02 -4.58843281E-13 -8.68164852E-14
 -4.23485993E-02 -4.23485993E-02  1.21709066E-12  5.79522058E-13  4.02904292E-01
  1.81980704E-01 -4.02904292E-01 -1.81980704E-01  4.92474773E-01  2.27085092E-01
 -3.50081723E-05  2.07390646E-03  5.12489159E-02 -5.12489159E-02 -7.66572083E-01
  1.69919671E-03 -9.38207186E-02  9.38207186E-02  1.45229606E+00 -5.09758889E-02
 -5.09758889E-02  1.02864572E-01 -7.95056360E-03  3.89405356E-03 -3.89405356E-03
 -1.19077166E-01 -6.26160563E-02 -1.84198628E-01 -8.71446508E-02 -1.84198628E-01
 -8.71446508E-02  8.73791730E-11 -1.66406324E-10  1.88079083E-14  5.54888142E-13
 -5.96424848E-01 -5.96424848E-01  8.27359298E-11 -1.34745121E-12  8.59184953E-01
  8.59184953E-01 -1.19173033E-10 -1.42728361E-01  1.42728360E-01  1.99091608E-11
 -1.50809666E-11  8.33746959E-02  8.33746959E-02  4.74575582E-11 -9.07766878E-11
 -7.26790426E-01  1.38863096E+00  7.26790426E-01 -1.38863096E+00 -6.56094239E-01
  1.24848868E+00 -2.68019088E-04 -4.22650376E-03  4.04130468E-01 -4.04130468E-01
 -6.20656683E-01  1.13119755E-02 -5.82127509E-01  5.82127509E-01  8.94100610E-01
  7.44004370E-02  7.44004370E-02 -1.49462135E-01  1.11795889E-01 -5.63086889E-02
  5.63086889E-02 -3.49831298E-01  6.68118640E-01  5.01568233E-01 -9.62758219E-01
  5.01568233E-01 -9.62758220E-01  6.30499646E-01 -1.17189958E+00  4.47138362E-03
 -3.05918991E-02  4.39795144E-01 -4.39795144E-01  5.71651149E-01  3.71156771E-02
 -6.33173527E-01  6.33173527E-01 -8.23208759E-01 -6.91603962E-02 -6.91603962E-02
  1.36843754E-01  1.21451133E-01 -6.13520794E-02  6.13520794E-02 -7.89254295E-01
  1.54336500E+00  1.35583082E-01 -2.28920037E-01  1.35583082E-01 -2.28920037E-01
  6.20973752E-01 -4.96490972E-01  9.97845233E-02 -7.93083605E-01 -2.02432461E-02
  2.02432461E-02 -2.57440679E-02  1.10056773E+00  2.59777801E-02 -2.59777801E-02
  2.92609696E-02 -1.69252026E-02 -1.69252026E-02 -2.62081030E-02 -5.12121093E-03
  3.49729097E-03 -3.49729097E-03  6.85303971E-01 -6.04423040E-01  6.44644750E-01
 -5.31449807E-01  6.44644750E-01 -5.31449807E-01 -2.83307596E-01 -1.01646574E+00
 -9.84275539E-02 -2.05794129E+00 -8.13548585E-06  8.13548590E-06  2.43969982E-06
  5.39639981E+00  5.62564404E-03 -5.62564404E-03  1.51517278E-02 -1.15858924E-01
 -1.15858924E-01 -1.14206666E-01 -1.10007650E-03 -9.33543549E-04  9.33543549E-04
 -2.88648854E-01 -1.03128049E+00 -2.89712740E-01 -1.01885060E+00 -2.89712740E-01
 -1.01885060E+00 -4.83623658E-15 -5.91660276E-16 -7.08714021E-16 -6.83023800E-16
 -1.37426693E-04 -1.37426693E-04 -6.55928512E-16  7.97504769E-15  9.36186852E-05
  9.36186852E-05 -6.63382238E-16  5.04283948E-01 -5.04283948E-01  3.00352547E-15
  1.43130760E-12  5.74860962E-01  5.74860962E-01 -4.66665997E-15 -5.93220508E-16
  6.40207146E-05  8.26020183E-05 -6.40207146E-05 -8.26020183E-05 -2.37837769E-03
 -2.04200478E-03 -4.45606994E-04 -4.37326341E-03  3.30061925E-05 -3.30061925E-05
 -1.62557059E-04  1.36185034E-02  1.11292390E-04 -1.11292390E-04  4.38788257E-05
 -8.85869921E-04 -8.85869919E-04  1.42768065E-03  5.80551595E-01  5.75741247E-01
 -5.75741247E-01 -2.46412874E-03 -2.18849032E-03 -2.01323833E-03 -2.22326481E-03
 -2.01323833E-03 -2.22326481E-03 -8.03425001E-01  8.79761907E-02 -2.07170210E-05
  1.33851547E-03  1.62047945E-02 -1.62047945E-02 -1.38295012E-01 -3.86271844E-03
  4.94042562E-02 -4.94042562E-02 -4.28495172E-01 -5.55065483E-01 -5.55065483E-01
  1.10946578E+00 -1.53391772E-01  7.58572469E-02 -7.58572469E-02  1.39794819E-01
 -1.18803823E-02  3.30781353E-01 -3.53900423E-02  3.30781353E-01 -3.53900423E-02
  6.87049154E-13 -6.46792479E-14  4.65139054E-16  2.18616473E-14 -9.91847302E-02
 -9.91847302E-02  1.17953829E-13 -4.22527316E-14 -3.04459632E-01 -3.04459632E-01
  3.65713135E-13  7.92553777E-01 -7.92553777E-01 -9.49751057E-13 -1.66045340E-14
 -4.63603330E-01 -4.63603330E-01 -2.36898590E-13  2.50175243E-14 -6.64968355E-01
  7.44959490E-02  6.64968355E-01 -7.44959490E-02 -1.35111883E-01  1.50274172E-02
  3.35568315E-04 -7.33098918E-04 -1.00078804E-01  1.00078804E-01 -2.43042160E-02
 -6.32429142E-03 -2.98018715E-01  2.98018715E-01 -7.35127818E-02 -9.36370960E-02
 -9.36370960E-02  1.87621325E-01  9.05079428E-01 -4.56659930E-01  4.56659930E-01
  8.07691683E-01 -9.13473613E-02 -3.33494007E-01  4.07075599E-02 -3.33494007E-01
  4.07075599E-02  1.25363642E-01 -4.87991770E-01 -4.87810802E-01  2.93758620E+00
 -6.09623595E-04  6.09623595E-04 -9.63995612E-04  2.42787096E+00  1.45494212E-03
 -1.45494212E-03  4.48624925E-03 -1.87770650E+00 -1.87770650E+00 -1.87808887E+00
  6.24828558E-04 -2.46556013E-04  2.46556013E-04  1.26425912E-01 -4.93249296E-01
  1.24491568E-01 -4.89441942E-01  1.24491568E-01 -4.89441942E-01
Orthonormal basis                          R   N=         529
  7.11217746E-02  1.21400536E-01  3.23808861E-02  1.55480418E-01  9.57227118E-05
 -9.57227118E-05  2.23256648E-04  1.76075373E-01  1.11539311E-04 -1.11539311E-04
  3.34483187E-04  1.20239936E-01  1.20239936E-01  1.20280256E-01  1.59580996E-06
  3.70641658E-05 -3.70641658E-05  7.16559834E-02  1.21954372E-01  7.12704404E-02
  1.21590318E-01  7.12704404E-02  1.21590318E-01 -2.35948698E-02 -1.94905025E-02
 -4.03903649E-05 -2.35728895E-04  1.99043937E-01 -1.99043937E-01  2.37228631E-02
 -4.08716319E-04  2.51748348E-01 -2.51748348E-01  2.99230063E-02  2.09555005E-03
  2.09555005E-03 -4.74219163E-03 -8.30772132E-02  4.19332466E-02 -4.19332466E-02
  2.78523586E-01  2.22804617E-01 -1.27508787E-01 -1.02173290E-01 -1.27508787E-01
 -1.02173290E-01  2.30646426E-17 -7.95346409E-17 -1.76096199E-16  5.33288410E-17
  2.02105767E-01  2.02105767E-01 -7.36879160E-17 -4.47016142E-18  2.55764875E-01
  2.55764875E-01 -2.03449332E-17 -3.92256148E-02  3.92256148E-02  1.20440154E-17
 -1.45632657E-15  4.21156735E-02  4.21156735E-02  3.23912784E-15  2.30565111E-15
 -2.33905246E-01 -1.90118786E-01  2.33905246E-01  1.90118786E-01 -2.84447948E-01
 -2.33018596E-01 -1.79426089E-04 -6.72431781E-04 -1.65001070E-02  1.65001070E-02
  2.86494350E-01 -5.86028802E-04 -2.09347997E-02  2.09347997E-02  3.62519455E-01
  2.71969528E-02  2.71969528E-02 -5.58786853E-02  7.02502206E-03 -3.41371457E-03
  3.41371457E-03  7.26163333E-02  5.97343820E-02  1.06275994E-01  8.67637671E-02
  1.06275994E-01  8.67637671E-02  4.41215525E-04  6.84549429E-04 -1.88385818E-03
 -1.67761400E-03  1.96295603E-01 -1.96295603E-01 -6.34976443E-04  8.48204170E-05
  1.66441276E-01 -1.66441276E-01 -2.22756164E-04 -8.69472110E-04 -8.69472110E-04
 -1.19754902E-03  6.71418939E-01 -3.38797594E-01  3.38797594E-01 -2.22752711E-01
  4.12403100E-02  1.12788172E-01 -1.91203437E-02  1.12788172E-01 -1.91203437E-02
  9.26504479E-17 -1.41893541E-16  7.60475241E-16  2.37485539E-16 -1.62047377E-01
 -1.62047377E-01 -1.46687132E-16 -1.56604293E-16 -1.28045814E-01 -1.28045814E-01
  1.34868480E-16 -1.05798677E-01  1.05798677E-01  1.86636302E-17 -3.37404346E-16
  6.24740243E-01  6.24740243E-01 -4.45231829E-17 -9.60477685E-17 -1.67026428E-01
  2.11941231E-02  1.67026428E-01 -2.11941231E-02 -1.08357833E-01 -1.05978252E-01
  9.19903807E-01  2.13892700E-01  6.54031364E-05 -6.54031364E-05 -1.60369208E-03
 -1.46350774E-02  3.79313979E-04 -3.79313979E-04 -1.13833171E-03  6.00324549E-02
  6.00324549E-02  5.53332214E-02 -1.94819468E-02 -2.33953646E-02  2.33953646E-02
 -1.05019266E-01 -1.05069643E-01 -1.04813856E-01 -1.05701655E-01 -1.04813856E-01
 -1.05701655E-01 -4.08665652E-03 -3.60662298E-03  3.65033333E-02  7.03503561E-03
  2.20625954E-06 -2.20625954E-06 -9.83711620E-04 -6.85072047E-04  1.06577608E-05
 -1.06577608E-05 -7.20542768E-04  1.76396209E-03  1.76396209E-03  4.94565214E-04
  5.80544657E-01  5.75104459E-01 -5.75104459E-01 -2.83747649E-03 -3.67583235E-03
 -2.83272049E-03 -3.69313737E-03 -2.83272049E-03 -3.69313737E-03 -2.72857749E-01
 -2.63119508E-01 -3.64951883E-01  4.64020170E-01 -7.71749743E-04  7.71749743E-04
 -1.31481464E-01 -9.18030816E-02  5.98205448E-05 -5.98205448E-05 -7.03509819E-02
  4.43646272E-01  4.43646272E-01  1.48193382E-01  4.16801668E-03 -7.35033902E-05
  7.35033902E-05 -1.10431141E-01 -2.55317967E-01 -1.11643830E-01 -2.56233644E-01
 -1.11643830E-01 -2.56233644E-01  3.47412679E-01 -6.36683083E-02 -1.06002947E-01
  1.43663025E-01 -1.07269669E-03  1.07269669E-03  4.36971412E-01 -2.95931018E-02
  1.62431383E-04 -1.62431383E-04  2.29388938E-01 -2.17529673E-01 -2.17529673E-01
  7.53605923E-01  3.55863248E-03  4.35944989E-04 -4.35944989E-04 -1.75715577E-01
 -8.51070984E-02 -1.76771433E-01 -8.64052652E-02 -1.76771433E-01 -8.64052652E-02
  4.19406686E-18  2.12167279E-16  7.58698968E-17  5.94111988E-16  2.74971393E-01
  2.74971393E-01 -1.21795091E-16 -3.36420093E-16  1.03865318E-01  1.03865318E-01
  1.80647272E-16  6.44358362E-01 -6.44358362E-01  2.84071355E-17  2.69031391E-16
  2.70896078E-01  2.70896078E-01  2.06836579E-16 -1.78122221E-16  2.63179109E-01
  3.53097561E-02 -2.63179109E-01 -3.53097561E-02  1.52475370E-03 -5.17955673E-03
  5.78589915E-04  2.07152889E-03  7.68619461E-01 -7.68619461E-01 -6.30188535E-03
 -1.50178695E-03 -2.70374224E-01  2.70374224E-01  2.79917319E-03 -8.83821114E-04
 -8.83821114E-04  6.13591225E-03 -2.32074631E-01  1.17101407E-01 -1.17101407E-01
 -1.44692585E-01 -4.29821453E-01  7.56769372E-02  2.13106788E-01  7.56769372E-02
  2.13106788E-01 -2.72985240E-17 -5.76356808E-15 -9.94269713E-17  1.84568226E-17
  7.24366414E-01  7.24366414E-01 -1.30580993E-14  8.74866706E-18 -3.22209831E-01
 -3.22209831E-01  6.51789482E-15 -3.15730036E-01  3.15730036E-01  4.86977726E-15
 -1.03472062E-15  6.27852918E-02  6.27852918E-02 -5.04225180E-16 -1.35637335E-15
  2.75140556E-02  3.81771532E-01 -2.75140556E-02 -3.81771532E-01  8.14812542E-03
  4.74801687E-01  3.75095125E-04 -6.86311641E-04  5.51725232E-03 -5.51725232E-03
  1.02113917E+00  3.61795836E-04 -2.54424606E-03  2.54424606E-03 -4.75451214E-01
  1.80279254E-01  1.80279254E-01 -3.61630895E-01 -3.83352243E-04  3.49608838E-04
 -3.49608838E-04 -7.32937600E-04 -1.62050854E-01 -9.43788866E-04 -1.56944679E-01
 -9.43788866E-04 -1.56944679E-01  6.85974673E-01 -3.59433481E-01  1.33747408E-01
  2.98452419E-04 -4.48066447E-03  4.48066447E-03 -5.02011275E-03 -2.79217495E-01
  3.63419249E-03 -3.63419249E-03  9.14252957E-04  6.70367091E-02  6.70367091E-02
  6.20166674E-02 -2.58019282E-03 -4.11188299E-04  4.11188299E-04  6.82765117E-01
 -3.55640021E-01  6.88800250E-01 -3.60556117E-01  6.88800250E-01 -3.60556117E-01
  2.11403140E-02 -6.22030353E-03  6.16036936E-04 -2.85001530E-03 -3.03435057E-02
  3.03435057E-02 -1.96146527E-03 -8.03969243E-04 -5.48697070E-01  5.48697070E-01
  1.15024761E-02  5.14780738E-03  5.14780738E-03 -1.30875750E-02  5.96752533E-01
 -3.01133166E-01  3.01133166E-01  1.16097787E+00 -3.33860051E-01 -5.82359292E-01
  1.67914018E-01 -5.82359292E-01  1.67914018E-01  1.58034366E-15 -2.75263432E-16
  1.46729176E-16 -3.46642707E-16  4.76582722E-02  4.76582722E-02 -2.79570908E-16
  2.68646497E-16  5.13838998E-01  5.13838998E-01  1.37029819E-15 -6.10657901E-01
  6.10657901E-01 -1.00715204E-15  1.14928271E-15  2.87012585E-01  2.87012585E-01
  2.40831805E-15 -1.51581822E-15  9.84659675E-01 -2.79940376E-01 -9.84659675E-01
  2.79940376E-01  1.19726238E+00 -3.39981969E-01 -1.16716014E-04  2.02422968E-03
  2.53044462E-03 -2.53044462E-03  8.16529913E-02 -1.52647494E-03  7.71803253E-03
 -7.71803253E-03  7.05627786E-01  4.22320822E-01  4.22320822E-01 -8.42196193E-01
 -9.00108225E-03  5.42718548E-03 -5.42718548E-03 -4.19826880E-01  1.18680529E-01
 -3.91724238E-01  1.11068392E-01 -3.91724238E-01  1.11068392E-01 -1.61539636E-01
  1.16105127E+00 -2.99352034E-04 -1.43426486E-03  3.58835253E-01 -3.58835253E-01
 -2.72967155E-01  3.07398362E-03 -1.34593806E+00  1.34593806E+00  1.02888717E+00
  3.00307215E-02  3.00307215E-02 -6.17944233E-02  8.51798159E-02 -4.29057819E-02
  4.29057819E-02 -2.38329837E-01  1.65505971E+00  1.99310470E-01 -1.40958370E+00
  1.99310470E-01 -1.40958370E+00 -3.74504771E-14  2.63207069E-13 -2.14273174E-16
 -3.23686819E-15 -4.07515049E-01 -4.07515049E-01 -6.29382200E-14  2.98175294E-15
  1.53392235E+00  1.53392235E+00  2.33326320E-13 -8.97129248E-02  8.97129248E-02
 -1.31788204E-14  6.67266708E-14  5.03642786E-02  5.03642786E-02 -2.12012851E-13
  1.49828147E-12 -2.80870803E-01  2.00558633E+00  2.80870803E-01 -2.00558633E+00
 -2.98472663E-01  2.17102345E+00  7.31629604E-05  9.83984503E-03 -1.93033171E-01
  1.93033171E-01 -5.07800175E-01 -1.60336579E-02  7.26973151E-01 -7.26973151E-01
  1.92154515E+00  5.74394245E-02  5.74394245E-02 -1.14939205E-01 -4.61790547E-02
  2.34443317E-02 -2.34443317E-02  2.53327261E-01 -1.82042379E+00  2.00166496E-02
 -1.67307540E-01  2.00166496E-02 -1.67307540E-01  1.53122292E-01  9.05100628E-02
 -4.25280741E-01  3.62822614E+00  9.62620577E-05 -9.62620577E-05  8.30941240E-04
 -3.23520124E-01 -3.15743594E-03  3.15743594E-03 -6.98843738E-03 -1.61911351E+00
 -1.61911351E+00 -1.61871617E+00  5.31369383E-04 -5.88032098E-04  5.88032098E-04
  1.54370741E-01  1.02257112E-01  1.53130980E-01  9.64116588E-02  1.53130980E-01
  9.64116588E-02 -4.84136901E-02 -1.50374491E+00 -3.42816060E-01 -4.58965375E-01
 -1.39481174E-03  1.39481174E-03 -3.39739037E-03  6.54060020E+00  1.08061683E-02
 -1.08061683E-02  2.44457997E-02 -8.75067975E-01 -8.75067975E-01 -8.76427323E-01
 -2.58679409E-04  8.67243975E-04 -8.67243975E-04 -5.02213276E-02 -1.53905330E+00
 -5.09110214E-02 -1.51650952E+00 -5.09110214E-02 -1.51650952E+00
Total SCF Density                          R   N=         276
  2.07839364E-01  1.56203120E-01  1.26604240E-01 -5.36225460E-02 -1.05404581E-02
  2.05001033E+00  1.02193192E-01  3.02354034E-02 -5.21107779E-02  2.93768475E-01
 -2.48992974E-05 -3.60545262E-05 -9.41248885E-05  2.21516317E-04  3.96723020E-01
  2.48992974E-05  3.60545262E-05  9.41248885E-05 -2.21516317E-04 -4.52001527E-04
  3.96723020E-01 -2.60826301E-01 -2.21197126E-01  3.74376630E-06 -5.05951895E-05
  1.92466595E-04 -1.92466595E-04  3.96227672E-01  9.82772288E-02  2.88873568E-02
 -1.73358062E-01  2.75583350E-01 -2.51760106E-04  2.51760106E-04 -4.19666273E-04
  2.66117392E-01  7.15186571E-05  7.88817587E-05  4.28409601E-07 -2.40134322E-05
  1.91742549E-01 -6.32786207E-05 -1.03776836E-04 -2.45658776E-04  9.26724419E-02
 -7.15186571E-05 -7.88817587E-05 -4.28409605E-07  2.40134322E-05 -6.32786207E-05
  1.91742549E-01  1.03776836E-04  2.45658776E-04  4.42615551E-05  9.26724419E-02
 -1.26016764E-01 -1.06855728E-01 -2.28145027E-05 -1.02110838E-04 -1.05320473E-04
  1.05320473E-04  1.91395123E-01 -2.72775978E-04 -1.45854008E-04  1.45854008E-04