nPr_transform_new_1 0.0                                                 
SP        RB3LYP                                                      6-31G(d)            
Number of atoms                            I               11
Info1-9                                    I   N=           9
          20          20           0           0           0         110
           1          18        -502
Full Title                                 C   N=           2
nPr_transform_new_1 0.0 
Route                                      C   N=           2
# nosymm b3lyp/6-31G*   
Charge                                     I                0
Multiplicity                               I                1
Number of electrons                        I               26
Number of alpha electrons                  I               13
Number of beta electrons                   I               13
Number of basis functions                  I               61
Number of independent functions            I               61
Number of point charges in /Mol/           I                0
Number of translation vectors              I                0
Atomic numbers                             I   N=          11
           1           6           1           1           6           1
           1           6           1           1           1
Nuclear charges                            R   N=          11
  1.00000000E+00  6.00000000E+00  1.00000000E+00  1.00000000E+00  6.00000000E+00
  1.00000000E+00  1.00000000E+00  6.00000000E+00  1.00000000E+00  1.00000000E+00
  1.00000000E+00
Current cartesian coordinates              R   N=          33
  0.00000000E+00  0.00000000E+00  0.00000000E+00  0.00000000E+00  0.00000000E+00
  2.07868974E+00  9.75455876E-01 -1.69703075E+00  2.77788850E+00  9.75455876E-01
  1.69703075E+00  2.77788850E+00 -2.75263432E+00  0.00000000E+00  3.04246488E+00
 -3.72809386E+00  1.69703075E+00  2.36216283E+00 -3.72809386E+00 -1.69703075E+00
  2.36216283E+00 -2.75262816E+00  0.00000000E+00  5.95263489E+00 -4.70353908E+00
  0.00000000E+00  6.65185019E+00 -1.76380708E+00 -1.71039112E+00  6.65183174E+00
 -1.76380708E+00  1.71039112E+00  6.65183174E+00
Number of symbols in /Mol/                 I                0
Force Field                                I                0
Atom Types                                 C   N=          11
                                                            
                                                            
            
Int Atom Types                             I   N=          11
           0           0           0           0           0           0
           0           0           0           0           0
MM charges                                 R   N=          11
  0.00000000E+00  0.00000000E+00  0.00000000E+00  0.00000000E+00  0.00000000E+00
  0.00000000E+00  0.00000000E+00  0.00000000E+00  0.00000000E+00  0.00000000E+00
  0.00000000E+00
Integer atomic weights                     I   N=          11
           1          12           1           1          12           1
           1          12           1           1           1
Real atomic weights                        R   N=          11
  1.00782504E+00  1.20000000E+01  1.00782504E+00  1.00782504E+00  1.20000000E+01
  1.00782504E+00  1.00782504E+00  1.20000000E+01  1.00782504E+00  1.00782504E+00
  1.00782504E+00
Atom fragment info                         I   N=          11
           0           0           0           0           0           0
           0           0           0           0           0
Atom residue num                           I   N=          11
           0           0           0           0           0           0
           0           0           0           0           0
Nuclear spins                              I   N=          11
           1           0           1           1           0           1
           1           0           1           1           1
Nuclear ZEff                               R   N=          11
 -1.00000000E+00 -3.60000000E+00 -1.00000000E+00 -1.00000000E+00 -3.60000000E+00
 -1.00000000E+00 -1.00000000E+00 -3.60000000E+00 -1.00000000E+00 -1.00000000E+00
 -1.00000000E+00
Nuclear ZNuc                               R   N=          11
  1.00000000E+00  6.00000000E+00  1.00000000E+00  1.00000000E+00  6.00000000E+00
  1.00000000E+00  1.00000000E+00  6.00000000E+00  1.00000000E+00  1.00000000E+00
  1.00000000E+00
Nuclear QMom                               R   N=          11
  0.00000000E+00  0.00000000E+00  0.00000000E+00  0.00000000E+00  0.00000000E+00
  0.00000000E+00  0.00000000E+00  0.00000000E+00  0.00000000E+00  0.00000000E+00
  0.00000000E+00
Nuclear GFac                               R   N=          11
  2.79284600E+00  0.00000000E+00  2.79284600E+00  2.79284600E+00  0.00000000E+00
  2.79284600E+00  2.79284600E+00  0.00000000E+00  2.79284600E+00  2.79284600E+00
  2.79284600E+00
MicOpt                                     I   N=          11
          -1          -1          -1          -1          -1          -1
          -1          -1          -1          -1          -1
Number of residues                         I                0
Number of secondary structures             I                0
Number of contracted shells                I               28
Number of primitive shells                 I               65
Pure/Cartesian d shells                    I                1
Pure/Cartesian f shells                    I                0
Highest angular momentum                   I                2
Largest degree of contraction              I                6
Shell types                                I   N=          28
           0           0           0          -1          -1           2
           0           0           0           0           0          -1
          -1           2           0           0           0           0
           0          -1          -1           2           0           0
           0           0           0           0
Number of primitives per shell             I   N=          28
           3           1           6           3           1           1
           3           1           3           1           6           3
           1           1           3           1           3           1
           6           3           1           1           3           1
           3           1           3           1
Shell to atom map                          I   N=          28
           1           1           2           2           2           2
           3           3           4           4           5           5
           5           5           6           6           7           7
           8           8           8           8           9           9
          10          10          11          11
Primitive exponents                        R   N=          65
  1.87311370E+01  2.82539436E+00  6.40121692E-01  1.61277759E-01  3.04752488E+03
  4.57369518E+02  1.03948685E+02  2.92101553E+01  9.28666296E+00  3.16392696E+00
  7.86827235E+00  1.88128854E+00  5.44249258E-01  1.68714478E-01  8.00000000E-01
  1.87311370E+01  2.82539436E+00  6.40121692E-01  1.61277759E-01  1.87311370E+01
  2.82539436E+00  6.40121692E-01  1.61277759E-01  3.04752488E+03  4.57369518E+02
  1.03948685E+02  2.92101553E+01  9.28666296E+00  3.16392696E+00  7.86827235E+00
  1.88128854E+00  5.44249258E-01  1.68714478E-01  8.00000000E-01  1.87311370E+01
  2.82539436E+00  6.40121692E-01  1.61277759E-01  1.87311370E+01  2.82539436E+00
  6.40121692E-01  1.61277759E-01  3.04752488E+03  4.57369518E+02  1.03948685E+02
  2.92101553E+01  9.28666296E+00  3.16392696E+00  7.86827235E+00  1.88128854E+00
  5.44249258E-01  1.68714478E-01  8.00000000E-01  1.87311370E+01  2.82539436E+00
  6.40121692E-01  1.61277759E-01  1.87311370E+01  2.82539436E+00  6.40121692E-01
  1.61277759E-01  1.87311370E+01  2.82539436E+00  6.40121692E-01  1.61277759E-01
Contraction coefficients                   R   N=          65
  3.34946043E-02  2.34726953E-01  8.13757326E-01  1.00000000E+00  1.83473713E-03
  1.40373228E-02  6.88426223E-02  2.32184443E-01  4.67941348E-01  3.62311985E-01
 -1.19332420E-01 -1.60854152E-01  1.14345644E+00  1.00000000E+00  1.00000000E+00
  3.34946043E-02  2.34726953E-01  8.13757326E-01  1.00000000E+00  3.34946043E-02
  2.34726953E-01  8.13757326E-01  1.00000000E+00  1.83473713E-03  1.40373228E-02
  6.88426223E-02  2.32184443E-01  4.67941348E-01  3.62311985E-01 -1.19332420E-01
 -1.60854152E-01  1.14345644E+00  1.00000000E+00  1.00000000E+00  3.34946043E-02
  2.34726953E-01  8.13757326E-01  1.00000000E+00  3.34946043E-02  2.34726953E-01
  8.13757326E-01  1.00000000E+00  1.83473713E-03  1.40373228E-02  6.88426223E-02
  2.32184443E-01  4.67941348E-01  3.62311985E-01 -1.19332420E-01 -1.60854152E-01
  1.14345644E+00  1.00000000E+00  1.00000000E+00  3.34946043E-02  2.34726953E-01
  8.13757326E-01  1.00000000E+00  3.34946043E-02  2.34726953E-01  8.13757326E-01
  1.00000000E+00  3.34946043E-02  2.34726953E-01  8.13757326E-01  1.00000000E+00
P(S=P) Contraction coefficients            R   N=          65
  0.00000000E+00  0.00000000E+00  0.00000000E+00  0.00000000E+00  0.00000000E+00
  0.00000000E+00  0.00000000E+00  0.00000000E+00  0.00000000E+00  0.00000000E+00
  6.89990666E-02  3.16423961E-01  7.44308291E-01  1.00000000E+00  0.00000000E+00
  0.00000000E+00  0.00000000E+00  0.00000000E+00  0.00000000E+00  0.00000000E+00
  0.00000000E+00  0.00000000E+00  0.00000000E+00  0.00000000E+00  0.00000000E+00
  0.00000000E+00  0.00000000E+00  0.00000000E+00  0.00000000E+00  6.89990666E-02
  3.16423961E-01  7.44308291E-01  1.00000000E+00  0.00000000E+00  0.00000000E+00
  0.00000000E+00  0.00000000E+00  0.00000000E+00  0.00000000E+00  0.00000000E+00
  0.00000000E+00  0.00000000E+00  0.00000000E+00  0.00000000E+00  0.00000000E+00
  0.00000000E+00  0.00000000E+00  0.00000000E+00  6.89990666E-02  3.16423961E-01
  7.44308291E-01  1.00000000E+00  0.00000000E+00  0.00000000E+00  0.00000000E+00
  0.00000000E+00  0.00000000E+00  0.00000000E+00  0.00000000E+00  0.00000000E+00
  0.00000000E+00  0.00000000E+00  0.00000000E+00  0.00000000E+00  0.00000000E+00
Coordinates of each shell                  R   N=          84
  0.00000000E+00  0.00000000E+00  0.00000000E+00  0.00000000E+00  0.00000000E+00
  0.00000000E+00  0.00000000E+00  0.00000000E+00  2.07868974E+00  0.00000000E+00
  0.00000000E+00  2.07868974E+00  0.00000000E+00  0.00000000E+00  2.07868974E+00
  0.00000000E+00  0.00000000E+00  2.07868974E+00  9.75455876E-01 -1.69703075E+00
  2.77788850E+00  9.75455876E-01 -1.69703075E+00  2.77788850E+00  9.75455876E-01
  1.69703075E+00  2.77788850E+00  9.75455876E-01  1.69703075E+00  2.77788850E+00
 -2.75263432E+00  0.00000000E+00  3.04246488E+00 -2.75263432E+00  0.00000000E+00
  3.04246488E+00 -2.75263432E+00  0.00000000E+00  3.04246488E+00 -2.75263432E+00
  0.00000000E+00  3.04246488E+00 -3.72809386E+00  1.69703075E+00  2.36216283E+00
 -3.72809386E+00  1.69703075E+00  2.36216283E+00 -3.72809386E+00 -1.69703075E+00
  2.36216283E+00 -3.72809386E+00 -1.69703075E+00  2.36216283E+00 -2.75262816E+00
  0.00000000E+00  5.95263489E+00 -2.75262816E+00  0.00000000E+00  5.95263489E+00
 -2.75262816E+00  0.00000000E+00  5.95263489E+00 -2.75262816E+00  0.00000000E+00
  5.95263489E+00 -4.70353908E+00  0.00000000E+00  6.65185019E+00 -4.70353908E+00
  0.00000000E+00  6.65185019E+00 -1.76380708E+00 -1.71039112E+00  6.65183174E+00
 -1.76380708E+00 -1.71039112E+00  6.65183174E+00 -1.76380708E+00  1.71039112E+00
  6.65183174E+00 -1.76380708E+00  1.71039112E+00  6.65183174E+00
Num ILSW                                   I              100
ILSW                                       I   N=         100
           0           1           0           0           2           0
           0           0           0           0         402          -1
           5           0           0           0           0           0
           0           0           1           0           0           0
           1           1           0           0           0           0
           0           0      100000           0          -1           0
           0           0           0           0           0           0
           0           0           0           1           0           0
           0 -2000000000           1           0           0           0
           0           0           4          52           0           0
           0           0           5           0           0           0
           0           0           0           0           0           1
           0           0           0           0           0           0
           0           0           0           0           0           0
           0           0           0           0           0           0
           0           0           0           0           0           0
           0           0           0           0
Num RLSW                                   I               52
RLSW                                       R   N=          52
  8.00000000E-01  7.20000000E-01  1.00000000E+00  8.10000000E-01  2.00000000E-01
  0.00000000E+00  0.00000000E+00  1.00000000E+00  0.00000000E+00  0.00000000E+00
  0.00000000E+00  0.00000000E+00  1.00000000E+00  0.00000000E+00  0.00000000E+00
  0.00000000E+00  0.00000000E+00  1.00000000E+00  0.00000000E+00  0.00000000E+00
  0.00000000E+00  0.00000000E+00  1.00000000E+00  0.00000000E+00  0.00000000E+00
  0.00000000E+00  0.00000000E+00  1.00000000E+00  0.00000000E+00  0.00000000E+00
  0.00000000E+00  0.00000000E+00  1.00000000E+00  0.00000000E+00  0.00000000E+00
  0.00000000E+00  0.00000000E+00  0.00000000E+00  1.00000000E+00  1.00000000E+00
  0.00000000E+00  1.00000000E+00  0.00000000E+00  0.00000000E+00  0.00000000E+00
  0.00000000E+00  0.00000000E+00  0.00000000E+00  0.00000000E+00  0.00000000E+00
  0.00000000E+00  0.00000000E+00
MxBond                                     I                4
NBond                                      I   N=          11
           1           4           1           1           4           1
           1           4           1           1           1
IBond                                      I   N=          44
           2           0           0           0           1           3
           4           5           2           0           0           0
           2           0           0           0           2           6
           7           8           5           0           0           0
           5           0           0           0           5           9
          10          11           8           0           0           0
           8           0           0           0           8           0
           0           0
RBond                                      R   N=          44
  1.00000000E+00  0.00000000E+00  0.00000000E+00  0.00000000E+00  1.00000000E+00
  1.00000000E+00  1.00000000E+00  1.00000000E+00  1.00000000E+00  0.00000000E+00
  0.00000000E+00  0.00000000E+00  1.00000000E+00  0.00000000E+00  0.00000000E+00
  0.00000000E+00  1.00000000E+00  1.00000000E+00  1.00000000E+00  1.00000000E+00
  1.00000000E+00  0.00000000E+00  0.00000000E+00  0.00000000E+00  1.00000000E+00
  0.00000000E+00  0.00000000E+00  0.00000000E+00  1.00000000E+00  1.00000000E+00
  1.00000000E+00  1.00000000E+00  1.00000000E+00  0.00000000E+00  0.00000000E+00
  0.00000000E+00  1.00000000E+00  0.00000000E+00  0.00000000E+00  0.00000000E+00
  1.00000000E+00  0.00000000E+00  0.00000000E+00  0.00000000E+00
Virial Ratio                               R      2.011057094392231E+00
SCF Energy                                 R     -1.191423331852357E+02
Total Energy                               R     -1.191423331852357E+02
RMS Density                                R      3.868310354149482E-09
Job Status                                 I                1
Nuclear derivative order                   I                0
External E-field                           R   N=          35
  0.00000000E+00  0.00000000E+00  0.00000000E+00  0.00000000E+00  0.00000000E+00
  0.00000000E+00  0.00000000E+00  0.00000000E+00  0.00000000E+00  0.00000000E+00
  0.00000000E+00  0.00000000E+00  0.00000000E+00  0.00000000E+00  0.00000000E+00
  0.00000000E+00  0.00000000E+00  0.00000000E+00  0.00000000E+00  0.00000000E+00
  0.00000000E+00  0.00000000E+00  0.00000000E+00  0.00000000E+00  0.00000000E+00
  0.00000000E+00  0.00000000E+00  0.00000000E+00  0.00000000E+00  0.00000000E+00
  0.00000000E+00  0.00000000E+00  0.00000000E+00  0.00000000E+00  0.00000000E+00
IOpCl                                      I                0
IROHF                                      I                0
Alpha Orbital Energies                     R   N=          61
 -1.01776821E+01 -1.01720281E+01 -1.01709752E+01 -7.73726995E-01 -6.70715563E-01
 -5.76639308E-01 -4.56170514E-01 -4.30225423E-01 -3.90917479E-01 -3.76505528E-01
 -3.32098256E-01 -3.30516931E-01 -3.23486461E-01  9.28281247E-02  1.44974913E-01
  1.48490488E-01  1.50886035E-01  1.70375408E-01  1.92250554E-01  1.98391657E-01
  1.98423877E-01  2.23683712E-01  2.55363668E-01  5.20010044E-01  5.23171928E-01
  5.52214573E-01  5.57587360E-01  5.82685289E-01  6.59235982E-01  6.95961249E-01
  7.37537574E-01  7.81349538E-01  8.72068943E-01  8.76607057E-01  8.93910846E-01
  9.14654964E-01  9.16739185E-01  9.65502022E-01  9.65860738E-01  9.78840517E-01
  1.03758317E+00  1.40894717E+00  1.45788567E+00  1.46428519E+00  1.56432127E+00
  1.76341012E+00  1.90493432E+00  1.92062466E+00  1.97873817E+00  2.04854801E+00
  2.12347846E+00  2.21964771E+00  2.24839241E+00  2.32230386E+00  2.35060734E+00
  2.40419089E+00  2.54085004E+00  2.68181977E+00  4.13737382E+00  4.27616250E+00
  4.45906814E+00
Alpha MO coefficients                      R   N=        3721
 -1.72936842E-04 -1.45382226E-04  1.46252253E-02  4.65784506E-04  8.18498783E-05
 -1.06607617E-15  3.39188861E-05  4.72056015E-03 -2.14782528E-03  1.71467099E-15
  7.06060156E-04 -5.39125331E-04 -2.26286132E-04 -2.69428229E-04 -1.73292479E-16
  7.64319608E-05 -5.24007924E-17 -1.74207856E-04  5.29680636E-05 -1.74207856E-04
  5.29680636E-05  9.92786873E-01  4.99559539E-02  5.60941716E-05  1.31952613E-16
  5.08393668E-05 -1.94228718E-02 -1.19326346E-03 -5.45960780E-16 -8.91874208E-04
 -8.94857488E-03 -8.76072878E-03 -8.98059651E-03  9.20978397E-17  5.19729585E-05
  4.68199480E-16  2.64701462E-05  2.79742395E-03  2.64701462E-05  2.79742395E-03
  1.77353771E-02  6.18942730E-04  5.65279050E-05 -4.28931180E-16  6.61346439E-05
  4.72267110E-03 -4.54865920E-05  3.01868804E-16 -2.27401567E-03 -2.85294320E-04
 -2.55464396E-04 -5.79937508E-04 -3.60940833E-17 -3.75600758E-05  2.15662629E-16
 -1.72899902E-04 -1.40560342E-04 -1.74371004E-04  6.06447061E-05 -1.74371004E-04
  6.06447061E-05 -5.98010539E-06  4.62105749E-04 -5.45316762E-03 -5.62556581E-04
  4.28365725E-05 -1.50855830E-17 -1.46452455E-04  9.38033418E-04 -2.62168758E-05
 -1.35012861E-15  7.46295927E-04 -1.54031780E-05 -6.92167236E-05  1.63835636E-05
 -9.50611095E-16 -2.42102219E-05 -4.79339493E-16 -7.31223765E-05 -3.66739715E-04
 -7.31223765E-05 -3.66739715E-04 -1.78838684E-02 -1.08425003E-03 -3.62378471E-05
 -5.16486950E-16 -1.16530472E-04  4.23574041E-03 -2.24092970E-04  2.03722684E-15
  2.12307189E-03  3.46370018E-06  7.53219355E-05 -2.28245904E-04 -1.60045059E-16
 -5.07871626E-06  5.73369146E-17 -1.52106048E-04 -9.71324866E-06 -1.52106048E-04
 -9.71324866E-06  9.92772662E-01  4.98132530E-02  5.29827358E-05 -1.43597929E-16
 -2.24003763E-05 -1.68959891E-02 -2.73838222E-04 -4.83607769E-17  1.13710371E-03
 -9.02611247E-03 -9.05435686E-03 -9.19654763E-03  3.12154621E-17 -9.55200345E-06
  9.98443779E-17 -8.72300302E-05  2.52669135E-03 -2.88107090E-05  2.73416213E-03
 -2.88107090E-05  2.73416213E-03 -8.09445664E-05  2.51327642E-03  9.92815385E-01
  4.98702033E-02  1.31465106E-07  2.57644566E-16  6.72203967E-05 -1.69465634E-02
  9.74852390E-04  2.64563756E-16 -6.55087564E-04 -9.20243648E-03 -9.05494467E-03
 -9.05969677E-03  5.07498781E-16  6.27435037E-05  5.70402840E-16 -3.81938206E-05
  2.77849482E-03 -3.81938206E-05  2.77849482E-03 -1.49466434E-02 -9.39437716E-04
 -1.14794946E-04 -4.51766408E-16  4.88453961E-10  4.23379195E-03  1.91759651E-03
  6.04308285E-16 -8.80359804E-04 -2.30681240E-04  4.71838232E-05 -4.94544984E-05
  6.54280880E-16  7.90984657E-05  2.62778847E-16 -1.54952523E-04 -6.92504313E-06
 -1.54952523E-04 -6.92504313E-06  5.07024772E-03 -3.36635084E-05 -1.24176765E-04
  1.62487485E-16  8.94261547E-05  7.50426140E-04  6.93367032E-04 -5.34624258E-16
 -2.63103023E-04 -9.59730695E-05 -1.67239748E-04 -9.84216672E-05  1.67837685E-16
 -3.10524008E-05 -2.49429983E-16 -7.13993006E-06  4.91700574E-04 -7.27148360E-05
 -3.34361585E-04 -7.27148360E-05 -3.34361585E-04  5.70634003E-02  1.05155929E-02
 -1.09558242E-01  2.06573316E-01 -5.12737188E-02 -1.16176137E-15  2.59709670E-02
  1.70584569E-01 -8.94078281E-03 -1.95775246E-15  5.19511148E-03  3.96262515E-03
 -1.43672054E-03 -2.57385520E-04  3.37882254E-16 -2.87726350E-03  6.68134443E-17
  6.12392594E-02  1.29404231E-02  6.12392594E-02  1.29404231E-02 -1.45304883E-01
  2.75827341E-01  3.51763233E-02 -2.53428410E-15  2.58750841E-02  2.20972505E-01
  4.40524207E-03  9.21749144E-15  3.23835507E-03  1.56919422E-04 -1.77967108E-03
  4.15815499E-04  4.80458004E-17 -6.65327081E-04 -1.77006329E-16  7.90062357E-02
  1.44962846E-02  7.90062357E-02  1.44962846E-02 -1.09315863E-01  2.06045659E-01
  6.49021175E-03 -1.12114290E-15 -5.79394855E-02  1.70682016E-01  1.93259099E-03
  1.08446168E-15 -1.03123347E-02 -1.44246879E-03 -1.63653035E-03  5.17462925E-03
 -5.26888522E-18 -7.99354052E-04  1.82271662E-16  5.72623529E-02  1.05348171E-02
  6.00135260E-02  1.27252528E-02  6.00135260E-02  1.27252528E-02  1.06688082E-01
  3.19649014E-02 -1.42130707E-01  2.75450957E-01  1.51779369E-02 -9.54235564E-16
 -2.23633325E-02  2.62738739E-01  9.76724747E-03 -4.26831221E-15 -9.05184033E-03
 -4.56644893E-03  2.03671149E-03  7.92951911E-04 -3.98767998E-16  3.92725133E-03
 -1.41631808E-16  9.70671280E-02  2.70343530E-02  9.70671280E-02  2.70343530E-02
  1.31695244E-03 -2.72087171E-03  8.35226358E-02  4.60594290E-16 -1.16354445E-01
 -1.94905445E-03  2.31100794E-02 -2.51913653E-15 -3.17041747E-02  1.16217119E-02
 -8.23207228E-05 -1.14614475E-02  6.50252634E-17 -4.65654821E-03  8.17511876E-17
 -1.34586306E-03 -4.08590504E-04 -1.34586306E-03 -4.08590504E-04  1.40924708E-01
 -2.72976374E-01  1.86352009E-02  3.64621986E-16 -1.95703285E-02 -2.61567716E-01
  5.89952726E-03 -1.05247934E-16 -1.16570517E-02 -2.23699565E-03 -1.70510968E-03
  5.76224847E-03  1.41866445E-16 -9.53954208E-04 -1.09945527E-17 -1.06924476E-01
 -3.17873048E-02 -9.43987034E-02 -2.63189419E-02 -9.43987034E-02 -2.63189419E-02
 -6.76068895E-02 -3.12300321E-02  7.97315071E-02 -1.58811895E-01 -1.34282432E-01
 -9.31777541E-16  9.69175366E-03 -1.68704281E-01 -4.58906697E-02  8.41787412E-15
 -1.37155196E-03  1.32923925E-02 -6.30392072E-03 -3.85106566E-03  5.89727716E-16
 -5.92118898E-03  1.23916850E-16 -9.20686427E-02 -4.25758354E-02 -9.20686427E-02
 -4.25758354E-02 -1.31400338E-01  2.65401014E-01 -1.11032138E-01 -2.02366454E-15
 -7.95288248E-02  2.72858811E-01 -4.08190130E-02  3.86497401E-15 -2.91209277E-02
 -7.82808138E-03  1.02034186E-02 -1.18837610E-02 -4.95950868E-17  6.01355451E-03
 -1.60753470E-16  1.40294563E-01  6.06303904E-02  1.40294563E-01  6.06303904E-02
  8.19832390E-02 -1.63086058E-01 -3.24896800E-02 -9.03792761E-16 -1.31401368E-01
 -1.74631658E-01 -1.60187131E-02  2.19261727E-16 -4.33010169E-02 -5.29959058E-03
 -6.19478971E-03  1.47257754E-02  1.45104355E-16  1.79134153E-03 -1.15265743E-17
 -7.15128427E-02 -3.30487488E-02 -9.27511887E-02 -4.29691513E-02 -9.27511887E-02
 -4.29691513E-02  2.01147324E-15  4.78944251E-17 -1.04236810E-15 -9.42132245E-16
 -3.17807232E-15  2.28030531E-01 -3.57982128E-15  1.66052745E-14  7.66146285E-15
  9.76922565E-02  9.49312886E-16 -4.44675466E-16  1.54869125E-16 -8.62471892E-17
  2.59701686E-03 -5.20449164E-17  9.47435862E-03 -1.08927956E-01 -8.27889168E-02
  1.08927956E-01  8.27889168E-02  4.31417765E-16  9.91292131E-15 -2.07763662E-15
  3.10326765E-01 -4.54517630E-16 -3.81044824E-14  1.04440151E-14  1.36291973E-01
 -1.07739317E-14  9.79039605E-16  6.11833496E-16  1.04551837E-16 -7.56186817E-03
 -2.64817216E-16 -5.20598588E-03  1.44311285E-01  1.02346995E-01 -1.44311285E-01
 -1.02346995E-01 -5.29969868E-16 -2.96917481E-15 -1.44550482E-16  2.23051658E-01
 -7.28330102E-16  2.28733274E-14 -5.09575716E-15  9.64776409E-02 -1.24175528E-14
 -5.64431101E-16 -7.80673122E-16 -1.40563067E-16  9.42059534E-03  2.42219552E-16
 -9.16497856E-04  6.77159218E-17 -3.80378896E-15 -1.06106712E-01 -8.09797320E-02
  1.06106712E-01  8.09797320E-02 -1.85985663E-01 -1.40088802E-01  1.25114579E-02
 -2.41443692E-02 -4.55461078E-02 -2.14112386E-15  2.90644736E-01 -3.81664537E-02
 -1.70270045E-02  9.26516586E-15  1.33092065E-01  5.51878089E-03  4.91325416E-03
 -1.19307824E-02 -2.93130245E-17 -5.09190600E-03  7.12271428E-17  3.43230562E-02
  2.95309923E-02  3.43230562E-02  2.95309923E-02 -2.33992088E-02  5.10469134E-02
  1.80547389E-01  3.00199616E-15  1.30367181E-01  5.86229327E-02  7.68325339E-02
 -8.98612325E-16  5.51800650E-02  1.91943312E-03 -7.25074124E-03 -2.34384222E-03
 -3.40236361E-16  7.51707754E-03  1.83095935E-16 -5.35782348E-02 -4.81549870E-02
 -5.35782348E-02 -4.81549870E-02  1.17669609E-02 -2.27445279E-02  2.58869674E-01
  4.04604039E-15 -1.42539618E-01 -3.54124085E-02  1.19404428E-01 -5.37758967E-16
 -6.12121054E-02 -1.29213664E-02  4.88468907E-03  6.41123526E-03  6.35365580E-17
  2.48568735E-03 -3.70990278E-17 -1.85970459E-01 -1.40050164E-01  3.40648929E-02
  2.94842277E-02  3.40648929E-02  2.94842277E-02  1.26502386E-01  1.13963306E-01
  6.46453573E-03 -9.38788036E-03 -2.41808972E-01  1.51172391E-14 -2.04409731E-01
 -3.92033078E-02 -1.09096053E-01 -5.80516052E-16 -8.95807529E-02  1.54204619E-03
 -1.53470930E-02  1.14121129E-02  1.00225405E-15 -5.10843407E-03  3.44986235E-16
 -1.21532376E-01 -9.54162293E-02 -1.21532376E-01 -9.54162293E-02 -3.12735016E-04
  7.46305091E-04  1.29711411E-01 -6.32351707E-15 -1.74184064E-01  7.83579595E-04
  6.73174178E-02  1.99649424E-15 -9.10628075E-02 -9.62197295E-05 -2.53517275E-04
  1.74274814E-04  6.30360558E-16 -6.16102086E-05 -7.53380992E-17 -2.10291249E-03
 -1.64468998E-03 -2.10291249E-03 -1.64468998E-03 -6.99500311E-03  1.02623327E-02
  2.70509304E-01 -1.23019571E-14  1.54802965E-01  4.23815533E-02  1.19873407E-01
 -4.95823808E-15  7.09426973E-02 -7.59491211E-03  1.51830585E-02 -5.11551073E-03
 -8.12572106E-16  7.16197975E-03 -2.04416440E-16 -1.24640833E-01 -1.12434572E-01
  1.20006995E-01  9.46960026E-02  1.20006995E-01  9.46960026E-02 -5.82841231E-15
 -7.50194205E-15 -1.53303857E-15 -2.19543972E-15  8.31497276E-15  3.26577863E-01
  8.92600143E-15  2.23072418E-14  1.24672726E-14  1.64020382E-01  7.61490196E-15
 -8.19184350E-16  1.33458781E-15 -5.30539727E-16  1.61688500E-02  3.21895510E-16
  9.81830696E-03 -1.73898792E-01 -1.42605230E-01  1.73898792E-01  1.42605230E-01
  7.26622941E-17  2.43959225E-15 -2.75135423E-15 -8.77613560E-03  1.17062637E-14
 -1.10492509E-14  7.10169090E-15 -3.25321209E-03  3.88131533E-15  1.00286288E-15
  1.03273955E-16  5.35492892E-16  7.96039010E-03 -1.41662526E-16 -1.01265164E-02
 -5.04946638E-03 -4.79267379E-03  5.04946638E-03  4.79267379E-03  9.45441059E-16
  9.44594212E-16 -9.01133593E-15 -3.19775078E-01 -1.06279494E-14 -1.47594449E-14
 -1.15822266E-14 -1.62963503E-01 -1.22412769E-14  5.57600692E-16 -7.30868226E-16
  1.21669244E-15 -1.39856528E-02 -3.01202125E-16 -1.12938758E-02  2.83992656E-15
  5.20283159E-15  1.69548990E-01  1.38955622E-01 -1.69548990E-01 -1.38955622E-01
  8.62955470E-02  7.30193386E-02 -1.72366006E-02  3.62614437E-02 -2.51229811E-01
 -4.07646536E-15 -9.04565167E-02  7.33737520E-02 -1.23626878E-01 -9.57628180E-15
 -4.83036811E-02 -1.76307086E-03 -1.37324290E-02  1.00447053E-02 -1.00022978E-16
 -1.23670252E-02 -4.12689374E-16 -9.63909105E-02 -1.11917090E-01 -9.63909105E-02
 -1.11917090E-01 -1.25508296E-02  3.39668843E-02  2.82193992E-01  7.36852735E-17
  2.10610662E-01  3.01046953E-02  1.33065673E-01  2.55211771E-15  9.90476212E-02
  7.46805059E-05 -1.87331896E-02  1.08328876E-02 -2.96217953E-16 -1.63300080E-02
 -9.43163200E-17 -1.35900028E-01 -1.41656851E-01 -1.35900028E-01 -1.41656851E-01
 -1.80394371E-02  3.83443328E-02 -1.68157224E-01  1.98026956E-15 -2.21322617E-01
  7.45455198E-02 -8.68113568E-02 -3.55073840E-15 -1.08260130E-01  1.64338307E-03
 -1.41994197E-02  6.52181145E-03 -1.57056078E-16 -1.36280963E-02  1.20525453E-16
  8.24638369E-02  6.89701922E-02 -9.93328727E-02 -1.15316795E-01 -9.93328727E-02
 -1.15316795E-01 -6.92137299E-15 -2.18080179E-15  1.08392297E-15  8.18402073E-15
 -1.45146536E-14 -2.00949272E-01  1.11618362E-14 -4.68754328E-14  6.59306955E-16
 -8.23261729E-02 -1.96321786E-15  1.46425416E-15  2.62154542E-17 -2.36229009E-16
 -1.97928374E-02  4.52015132E-16 -6.98091272E-03  1.29260979E-01  1.44227923E-01
 -1.29260979E-01 -1.44227923E-01 -2.19661833E-15  7.02042425E-16  1.18554475E-14
  3.25131180E-01 -1.95955689E-14  4.50271549E-14  2.13054094E-14  1.39558424E-01
  1.10158703E-15 -1.85879416E-15 -3.04775498E-15 -3.10626107E-15 -2.41396934E-02
 -4.75791193E-16 -1.71609117E-02  1.98433550E-01  2.05106567E-01 -1.98433550E-01
 -2.05106567E-01  2.69547067E-15  5.29744416E-15 -6.82292050E-15 -2.12902189E-01
  2.05100673E-14 -5.61382756E-14 -4.76302586E-15 -8.99589550E-02  1.58129746E-14
  1.75596875E-15  1.02623089E-15  2.98186540E-17 -1.36321239E-02 -3.97946894E-16
 -1.69724564E-02  8.55743453E-15  2.32278829E-14  1.36351719E-01  1.51043388E-01
 -1.36351719E-01 -1.51043388E-01  1.69382124E-01  1.82351083E-01  2.03255565E-02
 -4.33377755E-02  2.16285917E-01 -1.33479352E-14 -2.52937525E-01 -8.29776084E-02
  1.18689897E-01 -9.34614816E-15 -1.22235460E-01 -1.20043819E-02 -1.20672979E-03
  2.03083919E-02 -1.56324160E-15 -1.51956801E-03 -3.92060126E-16 -1.01674718E-02