Ph_transform_new_1 0.0                                                  
SP        RB3LYP                                                      6-31G(d)            
Number of atoms                            I               12
Info1-9                                    I   N=           9
          21          21           0           0           0         110
           1          18        -502
Full Title                                 C   N=           2
Ph_transform_new_1 0.0  
Route                                      C   N=           2
# nosymm b3lyp/6-31G*   
Charge                                     I                0
Multiplicity                               I                1
Number of electrons                        I               42
Number of alpha electrons                  I               21
Number of beta electrons                   I               21
Number of basis functions                  I              102
Number of independent functions            I              102
Number of point charges in /Mol/           I                0
Number of translation vectors              I                0
Atomic numbers                             I   N=          12
           1           6           6           1           6           1
           6           1           6           1           6           1
Nuclear charges                            R   N=          12
  1.00000000E+00  6.00000000E+00  6.00000000E+00  1.00000000E+00  6.00000000E+00
  1.00000000E+00  6.00000000E+00  1.00000000E+00  6.00000000E+00  1.00000000E+00
  6.00000000E+00  1.00000000E+00
Current cartesian coordinates              R   N=          36
  0.00000000E+00  0.00000000E+00  0.00000000E+00  0.00000000E+00  0.00000000E+00
  2.00311504E+00 -2.27160024E+00  0.00000000E+00  3.30704349E+00 -3.98198412E+00
  0.00000000E+00  2.30547627E+00 -2.24486222E+00  0.00000000E+00  5.91485759E+00
 -3.98197153E+00  0.00000000E+00  6.91642630E+00  1.81980626E-05  0.00000000E+00
  7.21875926E+00  1.81980626E-05  0.00000000E+00  9.22187430E+00  2.27160905E+00
  0.00000000E+00  5.91484719E+00  3.98200232E+00  0.00000000E+00  6.91639803E+00
  2.27161285E+00  0.00000000E+00  3.30702161E+00  3.98200612E+00  0.00000000E+00
  2.30545741E+00
Number of symbols in /Mol/                 I                0
Force Field                                I                0
Atom Types                                 C   N=          12
                                                            
                                                            
                        
Int Atom Types                             I   N=          12
           0           0           0           0           0           0
           0           0           0           0           0           0
MM charges                                 R   N=          12
  0.00000000E+00  0.00000000E+00  0.00000000E+00  0.00000000E+00  0.00000000E+00
  0.00000000E+00  0.00000000E+00  0.00000000E+00  0.00000000E+00  0.00000000E+00
  0.00000000E+00  0.00000000E+00
Integer atomic weights                     I   N=          12
           1          12          12           1          12           1
          12           1          12           1          12           1
Real atomic weights                        R   N=          12
  1.00782504E+00  1.20000000E+01  1.20000000E+01  1.00782504E+00  1.20000000E+01
  1.00782504E+00  1.20000000E+01  1.00782504E+00  1.20000000E+01  1.00782504E+00
  1.20000000E+01  1.00782504E+00
Atom fragment info                         I   N=          12
           0           0           0           0           0           0
           0           0           0           0           0           0
Atom residue num                           I   N=          12
           0           0           0           0           0           0
           0           0           0           0           0           0
Nuclear spins                              I   N=          12
           1           0           0           1           0           1
           0           1           0           1           0           1
Nuclear ZEff                               R   N=          12
 -1.00000000E+00 -3.60000000E+00 -3.60000000E+00 -1.00000000E+00 -3.60000000E+00
 -1.00000000E+00 -3.60000000E+00 -1.00000000E+00 -3.60000000E+00 -1.00000000E+00
 -3.60000000E+00 -1.00000000E+00
Nuclear ZNuc                               R   N=          12
  1.00000000E+00  6.00000000E+00  6.00000000E+00  1.00000000E+00  6.00000000E+00
  1.00000000E+00  6.00000000E+00  1.00000000E+00  6.00000000E+00  1.00000000E+00
  6.00000000E+00  1.00000000E+00
Nuclear QMom                               R   N=          12
  0.00000000E+00  0.00000000E+00  0.00000000E+00  0.00000000E+00  0.00000000E+00
  0.00000000E+00  0.00000000E+00  0.00000000E+00  0.00000000E+00  0.00000000E+00
  0.00000000E+00  0.00000000E+00
Nuclear GFac                               R   N=          12
  2.79284600E+00  0.00000000E+00  0.00000000E+00  2.79284600E+00  0.00000000E+00
  2.79284600E+00  0.00000000E+00  2.79284600E+00  0.00000000E+00  2.79284600E+00
  0.00000000E+00  2.79284600E+00
MicOpt                                     I   N=          12
          -1          -1          -1          -1          -1          -1
          -1          -1          -1          -1          -1          -1
Number of residues                         I                0
Number of secondary structures             I                0
Number of contracted shells                I               36
Number of primitive shells                 I               90
Pure/Cartesian d shells                    I                1
Pure/Cartesian f shells                    I                0
Highest angular momentum                   I                2
Largest degree of contraction              I                6
Shell types                                I   N=          36
           0           0           0          -1          -1           2
           0          -1          -1           2           0           0
           0          -1          -1           2           0           0
           0          -1          -1           2           0           0
           0          -1          -1           2           0           0
           0          -1          -1           2           0           0
Number of primitives per shell             I   N=          36
           3           1           6           3           1           1
           6           3           1           1           3           1
           6           3           1           1           3           1
           6           3           1           1           3           1
           6           3           1           1           3           1
           6           3           1           1           3           1
Shell to atom map                          I   N=          36
           1           1           2           2           2           2
           3           3           3           3           4           4
           5           5           5           5           6           6
           7           7           7           7           8           8
           9           9           9           9          10          10
          11          11          11          11          12          12
Primitive exponents                        R   N=          90
  1.87311370E+01  2.82539436E+00  6.40121692E-01  1.61277759E-01  3.04752488E+03
  4.57369518E+02  1.03948685E+02  2.92101553E+01  9.28666296E+00  3.16392696E+00
  7.86827235E+00  1.88128854E+00  5.44249258E-01  1.68714478E-01  8.00000000E-01
  3.04752488E+03  4.57369518E+02  1.03948685E+02  2.92101553E+01  9.28666296E+00
  3.16392696E+00  7.86827235E+00  1.88128854E+00  5.44249258E-01  1.68714478E-01
  8.00000000E-01  1.87311370E+01  2.82539436E+00  6.40121692E-01  1.61277759E-01
  3.04752488E+03  4.57369518E+02  1.03948685E+02  2.92101553E+01  9.28666296E+00
  3.16392696E+00  7.86827235E+00  1.88128854E+00  5.44249258E-01  1.68714478E-01
  8.00000000E-01  1.87311370E+01  2.82539436E+00  6.40121692E-01  1.61277759E-01
  3.04752488E+03  4.57369518E+02  1.03948685E+02  2.92101553E+01  9.28666296E+00
  3.16392696E+00  7.86827235E+00  1.88128854E+00  5.44249258E-01  1.68714478E-01
  8.00000000E-01  1.87311370E+01  2.82539436E+00  6.40121692E-01  1.61277759E-01
  3.04752488E+03  4.57369518E+02  1.03948685E+02  2.92101553E+01  9.28666296E+00
  3.16392696E+00  7.86827235E+00  1.88128854E+00  5.44249258E-01  1.68714478E-01
  8.00000000E-01  1.87311370E+01  2.82539436E+00  6.40121692E-01  1.61277759E-01
  3.04752488E+03  4.57369518E+02  1.03948685E+02  2.92101553E+01  9.28666296E+00
  3.16392696E+00  7.86827235E+00  1.88128854E+00  5.44249258E-01  1.68714478E-01
  8.00000000E-01  1.87311370E+01  2.82539436E+00  6.40121692E-01  1.61277759E-01
Contraction coefficients                   R   N=          90
  3.34946043E-02  2.34726953E-01  8.13757326E-01  1.00000000E+00  1.83473713E-03
  1.40373228E-02  6.88426223E-02  2.32184443E-01  4.67941348E-01  3.62311985E-01
 -1.19332420E-01 -1.60854152E-01  1.14345644E+00  1.00000000E+00  1.00000000E+00
  1.83473713E-03  1.40373228E-02  6.88426223E-02  2.32184443E-01  4.67941348E-01
  3.62311985E-01 -1.19332420E-01 -1.60854152E-01  1.14345644E+00  1.00000000E+00
  1.00000000E+00  3.34946043E-02  2.34726953E-01  8.13757326E-01  1.00000000E+00
  1.83473713E-03  1.40373228E-02  6.88426223E-02  2.32184443E-01  4.67941348E-01
  3.62311985E-01 -1.19332420E-01 -1.60854152E-01  1.14345644E+00  1.00000000E+00
  1.00000000E+00  3.34946043E-02  2.34726953E-01  8.13757326E-01  1.00000000E+00
  1.83473713E-03  1.40373228E-02  6.88426223E-02  2.32184443E-01  4.67941348E-01
  3.62311985E-01 -1.19332420E-01 -1.60854152E-01  1.14345644E+00  1.00000000E+00
  1.00000000E+00  3.34946043E-02  2.34726953E-01  8.13757326E-01  1.00000000E+00
  1.83473713E-03  1.40373228E-02  6.88426223E-02  2.32184443E-01  4.67941348E-01
  3.62311985E-01 -1.19332420E-01 -1.60854152E-01  1.14345644E+00  1.00000000E+00
  1.00000000E+00  3.34946043E-02  2.34726953E-01  8.13757326E-01  1.00000000E+00
  1.83473713E-03  1.40373228E-02  6.88426223E-02  2.32184443E-01  4.67941348E-01
  3.62311985E-01 -1.19332420E-01 -1.60854152E-01  1.14345644E+00  1.00000000E+00
  1.00000000E+00  3.34946043E-02  2.34726953E-01  8.13757326E-01  1.00000000E+00
P(S=P) Contraction coefficients            R   N=          90
  0.00000000E+00  0.00000000E+00  0.00000000E+00  0.00000000E+00  0.00000000E+00
  0.00000000E+00  0.00000000E+00  0.00000000E+00  0.00000000E+00  0.00000000E+00
  6.89990666E-02  3.16423961E-01  7.44308291E-01  1.00000000E+00  0.00000000E+00
  0.00000000E+00  0.00000000E+00  0.00000000E+00  0.00000000E+00  0.00000000E+00
  0.00000000E+00  6.89990666E-02  3.16423961E-01  7.44308291E-01  1.00000000E+00
  0.00000000E+00  0.00000000E+00  0.00000000E+00  0.00000000E+00  0.00000000E+00
  0.00000000E+00  0.00000000E+00  0.00000000E+00  0.00000000E+00  0.00000000E+00
  0.00000000E+00  6.89990666E-02  3.16423961E-01  7.44308291E-01  1.00000000E+00
  0.00000000E+00  0.00000000E+00  0.00000000E+00  0.00000000E+00  0.00000000E+00
  0.00000000E+00  0.00000000E+00  0.00000000E+00  0.00000000E+00  0.00000000E+00
  0.00000000E+00  6.89990666E-02  3.16423961E-01  7.44308291E-01  1.00000000E+00
  0.00000000E+00  0.00000000E+00  0.00000000E+00  0.00000000E+00  0.00000000E+00
  0.00000000E+00  0.00000000E+00  0.00000000E+00  0.00000000E+00  0.00000000E+00
  0.00000000E+00  6.89990666E-02  3.16423961E-01  7.44308291E-01  1.00000000E+00
  0.00000000E+00  0.00000000E+00  0.00000000E+00  0.00000000E+00  0.00000000E+00
  0.00000000E+00  0.00000000E+00  0.00000000E+00  0.00000000E+00  0.00000000E+00
  0.00000000E+00  6.89990666E-02  3.16423961E-01  7.44308291E-01  1.00000000E+00
  0.00000000E+00  0.00000000E+00  0.00000000E+00  0.00000000E+00  0.00000000E+00
Coordinates of each shell                  R   N=         108
  0.00000000E+00  0.00000000E+00  0.00000000E+00  0.00000000E+00  0.00000000E+00
  0.00000000E+00  0.00000000E+00  0.00000000E+00  2.00311504E+00  0.00000000E+00
  0.00000000E+00  2.00311504E+00  0.00000000E+00  0.00000000E+00  2.00311504E+00
  0.00000000E+00  0.00000000E+00  2.00311504E+00 -2.27160024E+00  0.00000000E+00
  3.30704349E+00 -2.27160024E+00  0.00000000E+00  3.30704349E+00 -2.27160024E+00
  0.00000000E+00  3.30704349E+00 -2.27160024E+00  0.00000000E+00  3.30704349E+00
 -3.98198412E+00  0.00000000E+00  2.30547627E+00 -3.98198412E+00  0.00000000E+00
  2.30547627E+00 -2.24486222E+00  0.00000000E+00  5.91485759E+00 -2.24486222E+00
  0.00000000E+00  5.91485759E+00 -2.24486222E+00  0.00000000E+00  5.91485759E+00
 -2.24486222E+00  0.00000000E+00  5.91485759E+00 -3.98197153E+00  0.00000000E+00
  6.91642630E+00 -3.98197153E+00  0.00000000E+00  6.91642630E+00  1.81980626E-05
  0.00000000E+00  7.21875926E+00  1.81980626E-05  0.00000000E+00  7.21875926E+00
  1.81980626E-05  0.00000000E+00  7.21875926E+00  1.81980626E-05  0.00000000E+00
  7.21875926E+00  1.81980626E-05  0.00000000E+00  9.22187430E+00  1.81980626E-05
  0.00000000E+00  9.22187430E+00  2.27160905E+00  0.00000000E+00  5.91484719E+00
  2.27160905E+00  0.00000000E+00  5.91484719E+00  2.27160905E+00  0.00000000E+00
  5.91484719E+00  2.27160905E+00  0.00000000E+00  5.91484719E+00  3.98200232E+00
  0.00000000E+00  6.91639803E+00  3.98200232E+00  0.00000000E+00  6.91639803E+00
  2.27161285E+00  0.00000000E+00  3.30702161E+00  2.27161285E+00  0.00000000E+00
  3.30702161E+00  2.27161285E+00  0.00000000E+00  3.30702161E+00  2.27161285E+00
  0.00000000E+00  3.30702161E+00  3.98200612E+00  0.00000000E+00  2.30545741E+00
  3.98200612E+00  0.00000000E+00  2.30545741E+00
Num ILSW                                   I              100
ILSW                                       I   N=         100
           0           1           0           0           2           0
           0           0           0           0         402          -1
           5           0           0           0           0           0
           0           0           1           0           0           0
           1           1           0           0           0           0
           0           0      100000           0          -1           0
           0           0           0           0           0           0
           0           0           0           1           0           0
           0 -2000000000           1           0           0           0
           0           0           4          52           0           0
           0           0           5           0           0           0
           0           0           0           0           0           1
           0           0           0           0           0           0
           0           0           0           0           0           0
           0           0           0           0           0           0
           0           0           0           0           0           0
           0           0           0           0
Num RLSW                                   I               52
RLSW                                       R   N=          52
  8.00000000E-01  7.20000000E-01  1.00000000E+00  8.10000000E-01  2.00000000E-01
  0.00000000E+00  0.00000000E+00  1.00000000E+00  0.00000000E+00  0.00000000E+00
  0.00000000E+00  0.00000000E+00  1.00000000E+00  0.00000000E+00  0.00000000E+00
  0.00000000E+00  0.00000000E+00  1.00000000E+00  0.00000000E+00  0.00000000E+00
  0.00000000E+00  0.00000000E+00  1.00000000E+00  0.00000000E+00  0.00000000E+00
  0.00000000E+00  0.00000000E+00  1.00000000E+00  0.00000000E+00  0.00000000E+00
  0.00000000E+00  0.00000000E+00  1.00000000E+00  0.00000000E+00  0.00000000E+00
  0.00000000E+00  0.00000000E+00  0.00000000E+00  1.00000000E+00  1.00000000E+00
  0.00000000E+00  1.00000000E+00  0.00000000E+00  0.00000000E+00  0.00000000E+00
  0.00000000E+00  0.00000000E+00  0.00000000E+00  0.00000000E+00  0.00000000E+00
  0.00000000E+00  0.00000000E+00
MxBond                                     I                3
NBond                                      I   N=          12
           1           3           3           1           3           1
           3           1           3           1           3           1
IBond                                      I   N=          36
           2           0           0           1           3          11
           2           4           5           3           0           0
           3           6           7           5           0           0
           5           8           9           7           0           0
           7          10          11           9           0           0
           2           9          12          11           0           0
RBond                                      R   N=          36
  1.00000000E+00  0.00000000E+00  0.00000000E+00  1.00000000E+00  1.50000000E+00
  1.50000000E+00  1.50000000E+00  1.00000000E+00  1.50000000E+00  1.00000000E+00
  0.00000000E+00  0.00000000E+00  1.50000000E+00  1.00000000E+00  1.50000000E+00
  1.00000000E+00  0.00000000E+00  0.00000000E+00  1.50000000E+00  1.00000000E+00
  1.50000000E+00  1.00000000E+00  0.00000000E+00  0.00000000E+00  1.50000000E+00
  1.00000000E+00  1.50000000E+00  1.00000000E+00  0.00000000E+00  0.00000000E+00
  1.50000000E+00  1.50000000E+00  1.00000000E+00  1.00000000E+00  0.00000000E+00
  0.00000000E+00
Virial Ratio                               R      2.007861610293587E+00
SCF Energy                                 R     -2.322426931963890E+02
Total Energy                               R     -2.322426931963890E+02
RMS Density                                R      2.769604062667870E-09
Job Status                                 I                1
Nuclear derivative order                   I                0
External E-field                           R   N=          35
  0.00000000E+00  0.00000000E+00  0.00000000E+00  0.00000000E+00  0.00000000E+00
  0.00000000E+00  0.00000000E+00  0.00000000E+00  0.00000000E+00  0.00000000E+00
  0.00000000E+00  0.00000000E+00  0.00000000E+00  0.00000000E+00  0.00000000E+00
  0.00000000E+00  0.00000000E+00  0.00000000E+00  0.00000000E+00  0.00000000E+00
  0.00000000E+00  0.00000000E+00  0.00000000E+00  0.00000000E+00  0.00000000E+00
  0.00000000E+00  0.00000000E+00  0.00000000E+00  0.00000000E+00  0.00000000E+00
  0.00000000E+00  0.00000000E+00  0.00000000E+00  0.00000000E+00  0.00000000E+00
IOpCl                                      I                0
IROHF                                      I                0
Alpha Orbital Energies                     R   N=         102
 -1.01798109E+01 -1.01790845E+01 -1.01787385E+01 -1.01784382E+01 -1.01781061E+01
 -1.01779389E+01 -8.52992422E-01 -7.45620767E-01 -7.44142709E-01 -6.03769746E-01
 -6.01803081E-01 -5.27618522E-01 -4.64934949E-01 -4.40811539E-01 -4.22751386E-01
 -4.20463824E-01 -3.63050088E-01 -3.43393647E-01 -3.39926036E-01 -2.47772831E-01
 -2.46493133E-01  6.53304581E-03  8.45359790E-03  1.00841243E-01  1.52469093E-01
  1.54002362E-01  1.71912562E-01  1.90136055E-01  1.90780971E-01  2.02713318E-01
  3.09788080E-01  3.12373629E-01  3.25272346E-01  3.28938092E-01  4.71800726E-01
  5.27275451E-01  5.53474813E-01  5.70491241E-01  5.78128880E-01  5.91744738E-01
  6.01289958E-01  6.02004918E-01  6.10403789E-01  6.13645044E-01  6.31521252E-01
  6.32582137E-01  6.69997348E-01  6.70637132E-01  7.49423134E-01  8.59300201E-01
  8.60351281E-01  8.64260921E-01  8.79237197E-01  8.84274951E-01  9.45027570E-01
  9.47770183E-01  9.63219406E-01  9.73313139E-01  1.08317750E+00  1.08471848E+00
  1.15213095E+00  1.15361289E+00  1.21936345E+00  1.26355358E+00  1.38868881E+00
  1.45901683E+00  1.46157562E+00  1.49115385E+00  1.49405985E+00  1.51468211E+00
  1.51724671E+00  1.76628866E+00  1.80222726E+00  1.89461896E+00  1.93129054E+00
  2.01620811E+00  2.02105929E+00  2.09194568E+00  2.09429757E+00  2.16004392E+00
  2.16334454E+00  2.17554999E+00  2.17931575E+00  2.32064245E+00  2.32975807E+00
  2.34016320E+00  2.56390092E+00  2.56810711E+00  2.68707698E+00  2.73307474E+00
  2.73704452E+00  2.75624741E+00  2.76059307E+00  2.78225533E+00  3.03348744E+00
  3.48075113E+00  4.10974840E+00  4.12777986E+00  4.13048577E+00  4.34105360E+00
  4.34180784E+00  4.68763833E+00
Alpha MO coefficients                      R   N=       10404
 -4.63716967E-04  1.21139339E-03  9.43309711E-01  4.72666271E-02  9.45179131E-06
  1.54470425E-16  8.55791234E-05 -1.52427079E-02 -3.18085695E-05  2.81060425E-16
 -3.14209141E-03 -8.90230782E-03 -9.22164205E-03 -8.94832741E-03  4.70604609E-17
  1.28276533E-06  1.27560647E-16  2.18518486E-01  1.03776965E-02 -2.93075435E-04
  6.59614002E-16  1.13407058E-04  3.95160074E-03  3.07997854E-03 -1.25406826E-15
  2.32491849E-04 -2.36880096E-03 -2.33120818E-03 -2.36057676E-03  5.56650774E-16
  1.13318947E-04 -1.08985140E-16 -7.74554652E-05  1.03585522E-03  5.16913028E-02
  2.49974532E-03 -2.51440342E-05 -1.30814215E-16  1.03759015E-04 -2.53221929E-03
 -1.28344414E-03  1.93940770E-16  3.67690580E-04 -5.08274916E-04 -5.33771793E-04
 -4.89444762E-04  3.82760815E-17 -3.75156551E-05  2.11527229E-17 -6.99503811E-05
 -1.01498720E-04  2.66546839E-02  1.07038683E-03 -7.92041205E-07 -7.90477730E-16
  5.80543760E-05  2.51782761E-03  1.29335127E-06  1.14391146E-15 -1.63255300E-03
 -2.55292312E-04 -3.57719499E-04 -2.60146389E-04  2.66638618E-16  2.07122546E-06
 -3.35405636E-16  2.42712305E-05  5.21557161E-04  5.26594103E-02  2.55845851E-03
  2.70745444E-05  1.35049876E-16  9.92746277E-05 -2.58079766E-03  1.31586914E-03
 -4.67502511E-16  4.11461258E-04 -5.14287994E-04 -5.40968893E-04 -4.92140573E-04
  2.08904110E-16  3.75036475E-05 -5.28675342E-16 -7.38205523E-05 -1.24836701E-04
  2.03634438E-01  9.62791720E-03  2.97312416E-04 -5.58699495E-17  1.13623532E-04
  4.20403785E-03 -3.11512523E-03 -5.13658362E-17  2.46504805E-04 -2.22973349E-03
 -2.18601954E-03 -2.22284108E-03 -2.25092820E-16 -1.13398450E-04 -2.17937204E-16
 -7.06752868E-05  1.01135537E-03  6.90525827E-05  1.92351500E-04 -1.28531559E-01
 -6.76727632E-03 -4.52834927E-06  6.16621940E-16 -1.27354061E-04  4.46665034E-03
  1.28218723E-05 -8.98826953E-16  1.58524126E-03  1.13329235E-03  1.14740790E-03
  1.18986789E-03  6.27760166E-17  1.68587974E-06 -8.98270496E-17  1.32452243E-01
  6.49707571E-03  1.55599366E-05 -3.29168534E-17 -1.69947697E-04 -2.45388437E-03
 -1.08825406E-03  6.93740186E-16  3.14979251E-04 -1.25542554E-03 -1.34765672E-03
 -1.28047045E-03  6.49787298E-17  1.88557561E-05  8.37565426E-16 -9.39053046E-05
  1.70953202E-04  3.94347760E-01  1.92992676E-02 -2.08719220E-04  2.75526840E-16
 -9.80936888E-05 -3.77350080E-04  1.74072774E-03 -5.78532821E-16  1.50037363E-04
 -3.94600576E-03 -4.02320640E-03 -3.98051673E-03  4.60457850E-16 -4.98722290E-05
  1.28067254E-15 -1.65516298E-04  1.08161564E-03  7.59888708E-01  3.78580290E-02
 -2.46394603E-05 -6.86290162E-16  3.62765040E-05 -9.28394706E-03  1.02670694E-04
  5.31819408E-16  1.30548229E-03 -7.38679963E-03 -7.52995520E-03 -7.33266348E-03
  6.20153956E-16  1.94387433E-05  5.98980641E-16 -3.72290748E-04  1.20241994E-03
  4.46223105E-01  2.19233207E-02  2.05388172E-04 -1.99257735E-16 -8.96785949E-05
 -1.23541545E-03 -1.64639445E-03 -8.54500074E-17  1.46872067E-04 -4.44166735E-03
 -4.52841158E-03 -4.46478143E-03 -8.85082486E-17  7.14277480E-05  5.33337315E-16
 -1.95969269E-04  1.20107448E-03  1.37066924E-01  6.70752157E-03 -1.71815059E-05
 -1.41732111E-16 -1.89739919E-04 -2.30189425E-03  1.06694162E-03  5.02881714E-16
  4.17476398E-04 -1.30945954E-03 -1.39811709E-03 -1.34611243E-03  5.70818347E-17
 -1.70039970E-05  4.11467519E-16 -9.54984826E-05  1.91014580E-04  2.13902482E-05
  9.60035375E-05 -2.14850940E-02 -1.14695106E-03  2.88763281E-04 -2.54849796E-15
 -1.95488764E-05  1.45514382E-03 -1.53819561E-03  9.08199649E-16  6.46494801E-04
  1.71377971E-04  1.87303691E-04  1.79947538E-04  5.94014177E-16  2.36712440E-05
  3.80454572E-16  5.26109022E-01  2.63469667E-02  8.40203371E-05 -7.88383847E-16
 -1.16916626E-04 -6.63084122E-03 -1.17512506E-03  7.44612652E-16  2.04458774E-04
 -5.07786290E-03 -5.17427411E-03 -5.10697109E-03  6.76607943E-16  2.20570544E-05
 -1.21013597E-15 -2.57182631E-04  7.84259624E-04  4.75334873E-01  2.36797408E-02
  7.27936361E-05 -9.61198413E-16  1.27924884E-04 -3.66760245E-03 -1.20737917E-04
  5.71279311E-16 -8.29257984E-04 -4.65218771E-03 -4.71824027E-03 -4.68507351E-03
 -7.96659131E-16 -4.79616839E-06 -1.78410426E-15 -2.00962182E-04  9.12195043E-04
  4.59758557E-02  2.35412336E-03  2.95635211E-04  2.32481550E-15 -1.63381831E-05
 -1.69933218E-03 -1.56918594E-03 -1.37930207E-15  6.59976710E-04 -4.01532159E-04
 -4.32276918E-04 -4.14065104E-04 -1.14685563E-15 -1.92432295E-05  3.92796335E-16
 -3.16171164E-05 -4.78689292E-05 -5.20233068E-01 -2.60778621E-02  9.60617206E-05
  1.01311742E-15 -1.14638566E-04  6.75463133E-03 -1.26015064E-03 -8.48829744E-16
  1.76462518E-04  5.01449840E-03  5.10940163E-03  5.03648634E-03 -2.25592423E-16
 -1.08911320E-05  3.76116113E-16  2.52903421E-04 -7.47535015E-04 -4.57356585E-01
 -2.27837979E-02  6.14625760E-05  7.45900589E-16  1.35370614E-04  3.50832868E-03
 -8.17166942E-05 -1.50512963E-16 -8.61964399E-04  4.47032787E-03  4.53611042E-03
  4.50883176E-03  3.30208601E-16  2.13797572E-05  3.57056754E-16  1.99994547E-04
 -9.15826595E-04  1.02747406E-04  8.73342058E-05 -2.43081319E-01 -1.27394365E-02
  3.00590865E-05  6.05161618E-16 -2.71751992E-04  9.75604935E-03 -2.06022430E-04
 -1.40388591E-15  3.03282455E-03  1.83577949E-03  2.21065668E-03  2.07423122E-03
 -1.24488189E-15  1.65148347E-05  2.48769047E-18  5.80097405E-01  2.92449033E-02
  1.35525561E-04 -7.56305917E-16 -1.51039065E-05 -1.04889870E-02 -2.21026189E-03
  1.22263822E-15 -6.05902587E-04 -5.37015490E-03 -5.65625751E-03 -5.43135632E-03
 -5.51041415E-17 -7.05520095E-05  6.17370096E-16 -2.79901974E-04  7.36748968E-04
  1.78419367E-01  8.86637130E-03  1.53468667E-04  2.83614700E-16  2.43108312E-04
 -1.47950650E-03 -6.33057032E-04 -6.57332157E-16 -1.59260033E-03 -1.61791279E-03
 -1.78774315E-03 -1.75191118E-03  5.02693066E-17  6.73146638E-05  5.55807566E-16
 -6.50423377E-05  4.50048634E-04 -5.07877296E-01 -2.58027085E-02 -2.37685773E-05
 -2.77602744E-16  2.36621803E-04  9.22707910E-03  1.93703646E-04  1.37338018E-16
 -1.52239988E-03  4.53870957E-03  4.89006040E-03  4.73067968E-03 -9.68543533E-17
  1.12368542E-05  7.63895083E-17  1.91206659E-04 -6.94681899E-04  3.30432616E-01
  1.65716277E-02 -1.71743159E-04 -2.49809944E-16  1.77591151E-04 -4.50297906E-03
  1.01324933E-03  3.21603676E-16 -1.05187654E-03 -3.02055726E-03 -3.25369312E-03
 -3.10979419E-03 -3.23415092E-16 -7.75242293E-05  6.33603702E-16 -1.32601504E-04
  6.59408155E-04  4.37220053E-01  2.19812005E-02 -1.06204508E-04 -8.22875088E-17
 -7.91802177E-05 -7.50228648E-03  1.79175849E-03  6.79801169E-16 -7.82260236E-05
 -4.05118162E-03 -4.27875835E-03 -4.16197687E-03 -4.95259416E-16  6.06215693E-05
 -2.73973024E-16 -2.17189887E-04  5.61861827E-04  3.42514418E-05  1.64497933E-04
 -4.52651313E-02 -2.43914765E-03 -2.36371502E-04  4.15481953E-16 -6.36152507E-05
  3.03698324E-03  1.48652663E-03 -3.90206307E-16  1.23850633E-03  3.13433379E-04
  3.88633457E-04  3.65010125E-04  1.30911239E-16 -1.16921288E-04 -4.08515122E-16
 -3.74718461E-01 -1.90217821E-02 -8.35520269E-05 -1.14290438E-17 -1.95908929E-04
  6.77131252E-03  5.03244508E-04  7.41780348E-16  1.16123812E-03  3.47740962E-03
  3.62146113E-03  3.30072396E-03 -2.14007393E-17  3.39831469E-05  1.78887472E-16
  1.43273204E-04 -5.90307593E-04  4.80629102E-01  2.43229372E-02  1.22074123E-04
  2.56450982E-17 -1.65912402E-04 -8.25459954E-03 -7.84890218E-04 -5.24376283E-16
  1.06688344E-03 -4.46381220E-03 -4.67079166E-03 -4.31396774E-03 -6.98645119E-16
  7.05503179E-05 -1.67833712E-16 -1.80803882E-04  7.55012123E-04 -2.01411624E-02
 -9.88203934E-04  2.35737432E-04 -1.52904327E-16  1.21516245E-05 -8.78219087E-04
 -1.42289971E-03  4.75975780E-16  6.43756994E-04  1.98119986E-04  2.10830270E-04
  2.09785688E-04 -2.07497188E-16 -1.12805722E-04 -2.73301890E-16 -9.56242582E-06
 -1.71705944E-04 -4.81693619E-01 -2.45845259E-02  1.13975162E-04 -2.21616539E-16
  2.53930630E-04  1.15854187E-02 -2.09224584E-03  1.59505356E-16 -2.32683054E-03
  4.42419353E-03  4.60937303E-03  4.22506665E-03  2.04739475E-16  4.86341209E-05
  1.10294098E-16  2.26847817E-04 -3.75612549E-04  6.16454516E-01  3.13120537E-02
 -1.42717609E-04  2.01362486E-16  2.11260140E-04 -1.33851440E-02  2.41644834E-03
  1.29063904E-16 -2.16284557E-03 -5.68433000E-03 -5.94237305E-03 -5.51764998E-03
  1.60068790E-16  6.19973367E-05 -1.29272700E-16 -2.87576228E-04  6.25617494E-04
 -2.03310463E-04 -1.33710800E-03  1.32894255E-01  7.43644892E-03 -4.71860226E-07
 -1.18821318E-16  1.93624821E-04 -1.61739887E-02  5.79956578E-05 -3.54394727E-16
 -7.72302204E-03 -8.42532885E-04 -1.04174073E-03 -9.63328389E-04 -4.69469672E-16
 -9.69785394E-06  2.45916428E-16 -4.08141297E-01 -2.13052200E-02 -1.44065251E-04
 -1.24612125E-16 -2.31191707E-04  2.01216668E-02  6.99155848E-03  2.30859288E-16
  4.82571819E-03  3.57861606E-03  3.73519613E-03  3.44926957E-03 -6.16614477E-16
  5.18100801E-05  5.71119167E-16  3.41078543E-04  1.02431021E-03  5.81912728E-01
  3.01014132E-02  2.65522039E-04  3.66248790E-17 -1.61467421E-04 -2.34922116E-02
 -7.70227645E-03 -6.31740469E-16  4.52039814E-03 -5.16506881E-03 -5.42826948E-03
 -5.08308573E-03 -4.04223603E-16  1.13339279E-04  6.98824695E-16 -3.93488909E-04
 -7.01803890E-04 -3.83401086E-01 -2.01734481E-02  5.97506895E-05  1.81926211E-16
  3.03093463E-04  2.13092674E-02 -2.78432255E-04  4.68702638E-16 -8.88891627E-03
  3.07627492E-03  3.45924788E-03  3.29275406E-03  2.62776273E-16 -1.60863725E-05
  1.01937046E-16  3.14995548E-04  1.08083768E-03  4.14540268E-01  2.16395154E-02
 -2.05083760E-04  1.95287004E-16 -1.38757447E-04 -2.05070062E-02  7.30633642E-03
 -5.58635395E-16  4.30035882E-03 -3.58221240E-03 -3.79582137E-03 -3.53726831E-03