8
Et.log	Energy:  -50118.8055935
H         -1.16012       -1.01740       -0.00082
C         -0.76335       -0.00008       -0.00000
C          0.76327       -0.00001        0.00000
H          1.15996       -0.50933        0.88025
H          1.15996       -0.50793       -0.88106
H          1.15956        1.01728        0.00081
H         -1.15945        0.50825        0.88109
H         -1.15945        0.50967       -0.88028
