14
GeMe3.log	Energy: -1378937.3715382
H          0.00003        0.00002       -1.83296
Ge         0.00001       -0.00000       -0.28417
C         -0.82960        1.66431        0.36197
H         -1.85670        1.74623        0.00567
H         -0.84035        1.67732        1.45273
H         -0.27243        2.53358        0.01189
C         -1.02657       -1.55059        0.36197
H         -1.03387       -1.56544        1.45274
H         -2.05754       -1.50349        0.01053
H         -0.58307       -2.48115        0.00706
C          1.85613       -0.11372        0.36199
H          2.44027        0.73555        0.00685
H          1.87272       -0.11235        1.45276
H          2.33077       -1.03021        0.01074
