5
PbCl3.log	Energy: -987898.8613040
H         -0.00043        0.00075        2.09117
Pb         0.00001        0.00004        0.34058
Cl        -1.91880        1.13590       -0.58865
Cl        -0.02450       -2.22964       -0.58851
Cl         1.94327        1.09349       -0.58864
