12
Ph.log	Energy: -145805.7815016
H          2.47343        0.00311        0.00055
C          1.39085        0.00175        0.00013
C          0.69664       -1.20299       -0.00005
C          0.69361        1.20474       -0.00005
C         -0.69367       -1.20478       -0.00001
H          1.23867       -2.14013       -0.00046
C         -0.69671        1.20303       -0.00001
H          1.23327        2.14325       -0.00046
C         -1.39086       -0.00175       -0.00001
H         -1.23290       -2.14341       -0.00003
H         -1.23829        2.14031       -0.00003
H         -2.47333       -0.00312        0.00047
