14
PMe3.log	Energy: -289642.7940660
H          0.00001       -0.00002       -1.73223
P          0.00001        0.00001       -0.33307
C         -1.48331        0.85047        0.21141
H         -2.36562        0.33186       -0.16425
H         -1.51274        0.86664        1.30175
H         -1.48093        1.87426       -0.16325
C          0.00510       -1.70980        0.21141
H          0.00464       -1.74335        1.30175
H         -0.88217       -2.21987       -0.16421
H          0.89595       -2.21428       -0.16330
C          1.47821        0.85931        0.21142
H          1.46999        1.88290       -0.16373
H          1.50722        0.87616        1.30176
H          2.36360        0.34564       -0.16376
