5
SiCl3.log	Energy: -1048552.8937284
H         -0.00085       -0.00015        1.96552
Si        -0.00035       -0.00004        0.50197
Cl         0.95952        1.66837       -0.17614
Cl         0.96576       -1.66474       -0.17639
Cl        -1.92495       -0.00359       -0.17648
