5
SnCl3.log	Energy: -1001381.2758960
H          0.00032        0.00024        2.10331
Sn         0.00008        0.00006        0.40695
Cl         0.24989       -2.14676       -0.44018
Cl         1.73410        1.28975       -0.44047
Cl        -1.98424        0.85681       -0.43999
