CCCCl3                                                                  
SP        RB3LYP                                                      6-31G(d)            
Number of atoms                            I                7
Info1-9                                    I   N=           9
          16          16           0           0           0         110
           1          18        -502
Full Title                                 C   N=           1
CCCCl3      
Route                                      C   N=           2
# nosymm b3lyp/6-31G*   
Charge                                     I                0
Multiplicity                               I                1
Number of electrons                        I               70
Number of alpha electrons                  I               35
Number of beta electrons                   I               35
Number of basis functions                  I              104
Number of independent functions            I              104
Number of point charges in /Mol/           I                0
Number of translation vectors              I                0
Atomic numbers                             I   N=           7
           1           6           6           6          17          17
          17
Nuclear charges                            R   N=           7
  1.00000000E+00  6.00000000E+00  6.00000000E+00  6.00000000E+00  1.70000000E+01
  1.70000000E+01  1.70000000E+01
Current cartesian coordinates              R   N=          21
  0.00000000E+00  0.00000000E+00  0.00000000E+00  0.00000000E+00  0.00000000E+00
  2.00849541E+00 -3.51489059E-03 -5.66917837E-05  4.27085663E+00 -5.78256194E-03
  4.53534270E-04  6.98920876E+00  2.60568666E+00  1.83091785E+00  8.15292101E+00
 -2.90029496E+00  1.34888651E+00  8.14655263E+00  2.70476500E-01 -3.17851934E+00
  8.15065334E+00
Number of symbols in /Mol/                 I                0
Force Field                                I                0
Atom Types                                 C   N=           7
                                                            
                        
Int Atom Types                             I   N=           7
           0           0           0           0           0           0
           0
MM charges                                 R   N=           7
  0.00000000E+00  0.00000000E+00  0.00000000E+00  0.00000000E+00  0.00000000E+00
  0.00000000E+00  0.00000000E+00
Integer atomic weights                     I   N=           7
           1          12          12          12          35          35
          35
Real atomic weights                        R   N=           7
  1.00782504E+00  1.20000000E+01  1.20000000E+01  1.20000000E+01  3.49688527E+01
  3.49688527E+01  3.49688527E+01
Atom fragment info                         I   N=           7
           0           0           0           0           0           0
           0
Atom residue num                           I   N=           7
           0           0           0           0           0           0
           0
Nuclear spins                              I   N=           7
           1           0           0           0           3           3
           3
Nuclear ZEff                               R   N=           7
 -1.00000000E+00 -3.60000000E+00 -3.60000000E+00 -3.60000000E+00 -1.42400000E+01
 -1.42400000E+01 -1.42400000E+01
Nuclear ZNuc                               R   N=           7
  1.00000000E+00  6.00000000E+00  6.00000000E+00  6.00000000E+00  1.70000000E+01
  1.70000000E+01  1.70000000E+01
Nuclear QMom                               R   N=           7
  0.00000000E+00  0.00000000E+00  0.00000000E+00  0.00000000E+00 -8.16500000E+00
 -8.16500000E+00 -8.16500000E+00
Nuclear GFac                               R   N=           7
  2.79284600E+00  0.00000000E+00  0.00000000E+00  0.00000000E+00  8.21874000E-01
  8.21874000E-01  8.21874000E-01
MicOpt                                     I   N=           7
          -1          -1          -1          -1          -1          -1
          -1
Number of residues                         I                0
Number of secondary structures             I                0
Number of contracted shells                I               29
Number of primitive shells                 I               88
Pure/Cartesian d shells                    I                1
Pure/Cartesian f shells                    I                0
Highest angular momentum                   I                2
Largest degree of contraction              I                6
Shell types                                I   N=          29
           0           0           0          -1          -1           2
           0          -1          -1           2           0          -1
          -1           2           0          -1          -1          -1
           2           0          -1          -1          -1           2
           0          -1          -1          -1           2
Number of primitives per shell             I   N=          29
           3           1           6           3           1           1
           6           3           1           1           6           3
           1           1           6           6           3           1
           1           6           6           3           1           1
           6           6           3           1           1
Shell to atom map                          I   N=          29
           1           1           2           2           2           2
           3           3           3           3           4           4
           4           4           5           5           5           5
           5           6           6           6           6           6
           7           7           7           7           7
Primitive exponents                        R   N=          88
  1.87311370E+01  2.82539436E+00  6.40121692E-01  1.61277759E-01  3.04752488E+03
  4.57369518E+02  1.03948685E+02  2.92101553E+01  9.28666296E+00  3.16392696E+00
  7.86827235E+00  1.88128854E+00  5.44249258E-01  1.68714478E-01  8.00000000E-01
  3.04752488E+03  4.57369518E+02  1.03948685E+02  2.92101553E+01  9.28666296E+00
  3.16392696E+00  7.86827235E+00  1.88128854E+00  5.44249258E-01  1.68714478E-01
  8.00000000E-01  3.04752488E+03  4.57369518E+02  1.03948685E+02  2.92101553E+01
  9.28666296E+00  3.16392696E+00  7.86827235E+00  1.88128854E+00  5.44249258E-01
  1.68714478E-01  8.00000000E-01  2.51801000E+04  3.78035000E+03  8.60474000E+02
  2.42145000E+02  7.73349000E+01  2.62470000E+01  4.91765000E+02  1.16984000E+02
  3.74153000E+01  1.37834000E+01  5.45215000E+00  2.22588000E+00  3.18649000E+00
  1.14427000E+00  4.20377000E-01  1.42657000E-01  7.50000000E-01  2.51801000E+04
  3.78035000E+03  8.60474000E+02  2.42145000E+02  7.73349000E+01  2.62470000E+01
  4.91765000E+02  1.16984000E+02  3.74153000E+01  1.37834000E+01  5.45215000E+00
  2.22588000E+00  3.18649000E+00  1.14427000E+00  4.20377000E-01  1.42657000E-01
  7.50000000E-01  2.51801000E+04  3.78035000E+03  8.60474000E+02  2.42145000E+02
  7.73349000E+01  2.62470000E+01  4.91765000E+02  1.16984000E+02  3.74153000E+01
  1.37834000E+01  5.45215000E+00  2.22588000E+00  3.18649000E+00  1.14427000E+00
  4.20377000E-01  1.42657000E-01  7.50000000E-01
Contraction coefficients                   R   N=          88
  3.34946043E-02  2.34726953E-01  8.13757326E-01  1.00000000E+00  1.83473713E-03
  1.40373228E-02  6.88426223E-02  2.32184443E-01  4.67941348E-01  3.62311985E-01
 -1.19332420E-01 -1.60854152E-01  1.14345644E+00  1.00000000E+00  1.00000000E+00
  1.83473713E-03  1.40373228E-02  6.88426223E-02  2.32184443E-01  4.67941348E-01
  3.62311985E-01 -1.19332420E-01 -1.60854152E-01  1.14345644E+00  1.00000000E+00
  1.00000000E+00  1.83473713E-03  1.40373228E-02  6.88426223E-02  2.32184443E-01
  4.67941348E-01  3.62311985E-01 -1.19332420E-01 -1.60854152E-01  1.14345644E+00
  1.00000000E+00  1.00000000E+00  1.83295985E-03  1.40341988E-02  6.90973943E-02
  2.37451980E-01  4.83033960E-01  3.39855972E-01 -2.29739142E-03 -3.07137189E-02
 -1.12528069E-01  4.50163278E-02  5.89353363E-01  4.65206287E-01 -2.51828028E-01
  6.15892514E-02  1.06018433E+00  1.00000000E+00  1.00000000E+00  1.83295985E-03
  1.40341988E-02  6.90973943E-02  2.37451980E-01  4.83033960E-01  3.39855972E-01
 -2.29739142E-03 -3.07137189E-02 -1.12528069E-01  4.50163278E-02  5.89353363E-01
  4.65206287E-01 -2.51828028E-01  6.15892514E-02  1.06018433E+00  1.00000000E+00
  1.00000000E+00  1.83295985E-03  1.40341988E-02  6.90973943E-02  2.37451980E-01
  4.83033960E-01  3.39855972E-01 -2.29739142E-03 -3.07137189E-02 -1.12528069E-01
  4.50163278E-02  5.89353363E-01  4.65206287E-01 -2.51828028E-01  6.15892514E-02
  1.06018433E+00  1.00000000E+00  1.00000000E+00
P(S=P) Contraction coefficients            R   N=          88
  0.00000000E+00  0.00000000E+00  0.00000000E+00  0.00000000E+00  0.00000000E+00
  0.00000000E+00  0.00000000E+00  0.00000000E+00  0.00000000E+00  0.00000000E+00
  6.89990666E-02  3.16423961E-01  7.44308291E-01  1.00000000E+00  0.00000000E+00
  0.00000000E+00  0.00000000E+00  0.00000000E+00  0.00000000E+00  0.00000000E+00
  0.00000000E+00  6.89990666E-02  3.16423961E-01  7.44308291E-01  1.00000000E+00
  0.00000000E+00  0.00000000E+00  0.00000000E+00  0.00000000E+00  0.00000000E+00
  0.00000000E+00  0.00000000E+00  6.89990666E-02  3.16423961E-01  7.44308291E-01
  1.00000000E+00  0.00000000E+00  0.00000000E+00  0.00000000E+00  0.00000000E+00
  0.00000000E+00  0.00000000E+00  0.00000000E+00  3.98940088E-03  3.03177067E-02
  1.29880029E-01  3.27951072E-01  4.53527100E-01  2.52154056E-01 -1.42993147E-02
  3.23572333E-01  7.43507765E-01  1.00000000E+00  0.00000000E+00  0.00000000E+00
  0.00000000E+00  0.00000000E+00  0.00000000E+00  0.00000000E+00  0.00000000E+00
  3.98940088E-03  3.03177067E-02  1.29880029E-01  3.27951072E-01  4.53527100E-01
  2.52154056E-01 -1.42993147E-02  3.23572333E-01  7.43507765E-01  1.00000000E+00
  0.00000000E+00  0.00000000E+00  0.00000000E+00  0.00000000E+00  0.00000000E+00
  0.00000000E+00  0.00000000E+00  3.98940088E-03  3.03177067E-02  1.29880029E-01
  3.27951072E-01  4.53527100E-01  2.52154056E-01 -1.42993147E-02  3.23572333E-01
  7.43507765E-01  1.00000000E+00  0.00000000E+00
Coordinates of each shell                  R   N=          87
  0.00000000E+00  0.00000000E+00  0.00000000E+00  0.00000000E+00  0.00000000E+00
  0.00000000E+00  0.00000000E+00  0.00000000E+00  2.00849541E+00  0.00000000E+00
  0.00000000E+00  2.00849541E+00  0.00000000E+00  0.00000000E+00  2.00849541E+00
  0.00000000E+00  0.00000000E+00  2.00849541E+00 -3.51489059E-03 -5.66917837E-05
  4.27085663E+00 -3.51489059E-03 -5.66917837E-05  4.27085663E+00 -3.51489059E-03
 -5.66917837E-05  4.27085663E+00 -3.51489059E-03 -5.66917837E-05  4.27085663E+00
 -5.78256194E-03  4.53534270E-04  6.98920876E+00 -5.78256194E-03  4.53534270E-04
  6.98920876E+00 -5.78256194E-03  4.53534270E-04  6.98920876E+00 -5.78256194E-03
  4.53534270E-04  6.98920876E+00  2.60568666E+00  1.83091785E+00  8.15292101E+00
  2.60568666E+00  1.83091785E+00  8.15292101E+00  2.60568666E+00  1.83091785E+00
  8.15292101E+00  2.60568666E+00  1.83091785E+00  8.15292101E+00  2.60568666E+00
  1.83091785E+00  8.15292101E+00 -2.90029496E+00  1.34888651E+00  8.14655263E+00
 -2.90029496E+00  1.34888651E+00  8.14655263E+00 -2.90029496E+00  1.34888651E+00
  8.14655263E+00 -2.90029496E+00  1.34888651E+00  8.14655263E+00 -2.90029496E+00
  1.34888651E+00  8.14655263E+00  2.70476500E-01 -3.17851934E+00  8.15065334E+00
  2.70476500E-01 -3.17851934E+00  8.15065334E+00  2.70476500E-01 -3.17851934E+00
  8.15065334E+00  2.70476500E-01 -3.17851934E+00  8.15065334E+00  2.70476500E-01
 -3.17851934E+00  8.15065334E+00
Num ILSW                                   I              100
ILSW                                       I   N=         100
           0           1           0           0           2           0
           0           0           0           0         402          -1
           5           0           0           0           0           0
           0           0           1           0           0           0
           1           1           0           0           0           0
           0           0      100000           0          -1           0
           0           0           0           0           0           0
           0           0           0           1           0           0
           0 -2000000000           1           0           0           0
           0           0           4          52           0           0
           0           0           5           0           0           0
           0           0           0           0           0           1
           0           0           0           0           0           0
           0           0           0           0           0           0
           0           0           0           0           0           0
           0           0           0           0           0           0
           0           0           0           0
Num RLSW                                   I               52
RLSW                                       R   N=          52
  8.00000000E-01  7.20000000E-01  1.00000000E+00  8.10000000E-01  2.00000000E-01
  0.00000000E+00  0.00000000E+00  1.00000000E+00  0.00000000E+00  0.00000000E+00
  0.00000000E+00  0.00000000E+00  1.00000000E+00  0.00000000E+00  0.00000000E+00
  0.00000000E+00  0.00000000E+00  1.00000000E+00  0.00000000E+00  0.00000000E+00
  0.00000000E+00  0.00000000E+00  1.00000000E+00  0.00000000E+00  0.00000000E+00
  0.00000000E+00  0.00000000E+00  1.00000000E+00  0.00000000E+00  0.00000000E+00
  0.00000000E+00  0.00000000E+00  1.00000000E+00  0.00000000E+00  0.00000000E+00
  0.00000000E+00  0.00000000E+00  0.00000000E+00  1.00000000E+00  1.00000000E+00
  0.00000000E+00  1.00000000E+00  0.00000000E+00  0.00000000E+00  0.00000000E+00
  0.00000000E+00  0.00000000E+00  0.00000000E+00  0.00000000E+00  0.00000000E+00
  0.00000000E+00  0.00000000E+00
MxBond                                     I                4
NBond                                      I   N=           7
           1           2           2           4           1           1
           1
IBond                                      I   N=          28
           2           0           0           0           1           3
           0           0           2           4           0           0
           3           5           6           7           4           0
           0           0           4           0           0           0
           4           0           0           0
RBond                                      R   N=          28
  1.00000000E+00  0.00000000E+00  0.00000000E+00  0.00000000E+00  1.00000000E+00
  3.00000000E+00  0.00000000E+00  0.00000000E+00  3.00000000E+00  1.00000000E+00
  0.00000000E+00  0.00000000E+00  1.00000000E+00  1.00000000E+00  1.00000000E+00
  1.00000000E+00  1.00000000E+00  0.00000000E+00  0.00000000E+00  0.00000000E+00
  1.00000000E+00  0.00000000E+00  0.00000000E+00  0.00000000E+00  1.00000000E+00
  0.00000000E+00  0.00000000E+00  0.00000000E+00
Virial Ratio                               R      2.003471085990019E+00
SCF Energy                                 R     -1.495403613190724E+03
Total Energy                               R     -1.495403613190724E+03
RMS Density                                R      9.151015274521557E-09
Job Status                                 I                1
Nuclear derivative order                   I                0
External E-field                           R   N=          35
  0.00000000E+00  0.00000000E+00  0.00000000E+00  0.00000000E+00  0.00000000E+00
  0.00000000E+00  0.00000000E+00  0.00000000E+00  0.00000000E+00  0.00000000E+00
  0.00000000E+00  0.00000000E+00  0.00000000E+00  0.00000000E+00  0.00000000E+00
  0.00000000E+00  0.00000000E+00  0.00000000E+00  0.00000000E+00  0.00000000E+00
  0.00000000E+00  0.00000000E+00  0.00000000E+00  0.00000000E+00  0.00000000E+00
  0.00000000E+00  0.00000000E+00  0.00000000E+00  0.00000000E+00  0.00000000E+00
  0.00000000E+00  0.00000000E+00  0.00000000E+00  0.00000000E+00  0.00000000E+00
IOpCl                                      I                0
IROHF                                      I                0
Alpha Orbital Energies                     R   N=         104
 -1.01572464E+02 -1.01572388E+02 -1.01572338E+02 -1.03979708E+01 -1.02299301E+01
 -1.02271596E+01 -9.48946833E+00 -9.48938776E+00 -9.48933179E+00 -7.25430875E+00
 -7.25422693E+00 -7.25417021E+00 -7.24298593E+00 -7.24293745E+00 -7.24290604E+00
 -7.24285805E+00 -7.24285133E+00 -7.24280380E+00 -9.60831054E-01 -8.46147305E-01
 -8.46012323E-01 -7.91669264E-01 -6.89792001E-01 -5.65824549E-01 -5.24892207E-01
 -4.91974150E-01 -4.91909671E-01 -3.63504280E-01 -3.63497773E-01 -3.44450683E-01
 -3.35865299E-01 -3.35816580E-01 -3.12183159E-01 -3.03929271E-01 -3.03908300E-01
 -4.93002704E-02 -4.08378283E-02 -4.07244075E-02  7.92221487E-02  7.92862181E-02
  9.73554152E-02  1.66496424E-01  2.92518727E-01  3.53693349E-01  3.53701205E-01
  3.83779710E-01  3.88437169E-01  4.05429768E-01  4.05441841E-01  4.22967340E-01
  4.53730287E-01  4.53770416E-01  4.69394474E-01  4.98996793E-01  4.99082752E-01
  5.04569847E-01  5.62371748E-01  5.62385734E-01  5.98459175E-01  5.98519642E-01
  6.55608101E-01  6.55620801E-01  6.93169519E-01  7.42985199E-01  8.27599963E-01
  8.27707090E-01  8.42333300E-01  8.46564274E-01  8.56421951E-01  8.56523464E-01
  8.85575398E-01  9.02990587E-01  9.03142521E-01  9.71587463E-01  1.03160268E+00
  1.03175221E+00  1.11309846E+00  1.11322526E+00  1.13844802E+00  1.16530013E+00
  1.24147617E+00  1.46059640E+00  1.46067950E+00  1.51694338E+00  1.53366258E+00
  1.53371917E+00  1.61729683E+00  1.84623161E+00  1.84643545E+00  1.92325271E+00
  1.92355298E+00  2.06487953E+00  2.06517250E+00  2.08908898E+00  2.57265442E+00
  2.68266732E+00  2.68275891E+00  3.33733750E+00  4.00930738E+00  4.17761431E+00
  4.26365501E+00  4.26366795E+00  4.29682213E+00  4.62703078E+00
Alpha MO coefficients                      R   N=       10816
  4.02898636E-06  5.49272493E-05  3.65610636E-07 -5.34889038E-06  4.25552570E-06
  3.02614593E-06  1.73913373E-05  3.03372452E-04  3.83902139E-06  2.86347784E-06
  1.95636440E-04  1.35921878E-06  2.18652656E-06  1.53634497E-05 -1.29627299E-06
  8.45232495E-07  6.15711040E-07  3.58405863E-07  1.98123899E-05 -4.97346883E-06
 -3.53183252E-06 -1.87845555E-05 -3.39615134E-04 -4.08617003E-05 -2.85539660E-05
  2.33943263E-04 -3.82018577E-06 -4.83423618E-06 -3.08841410E-05  1.57718985E-06
 -7.88030830E-06 -5.59945672E-06 -1.50542532E-05  2.21538600E-05  4.71435278E-05
  3.32803832E-05  1.55969221E-05  1.43120968E-04  2.65274652E-05  1.87463240E-05
  5.71910245E-05 -4.46359865E-05 -3.60877761E-05 -2.08047872E-05 -1.34444241E-05
 -1.21987833E-05 -8.60932124E-06  9.95928353E-01  1.51651442E-02 -4.12512582E-05
 -2.89116454E-05 -1.86727948E-05 -2.10304469E-02  4.67109987E-05  3.27242933E-05
  2.04101717E-05  1.56755799E-03 -1.64729481E-05 -1.17060827E-05 -5.74487044E-06
  7.54535421E-03  7.55114447E-03  7.55295811E-03 -9.03414721E-06 -5.64997849E-06
 -3.95376127E-06 -6.02105600E-03 -8.92294445E-05  4.09671813E-06 -7.99015714E-07
 -7.91783671E-07  1.70158486E-04 -1.87325232E-05  5.80641516E-06  4.80252277E-06
 -1.15156570E-04 -6.58186586E-05 -7.83061816E-06  2.28291965E-06 -7.66872731E-05
 -4.36668680E-05 -4.68485740E-05 -1.07732049E-06  1.73328640E-06  8.69191172E-07
 -1.01053782E-02 -1.51413405E-04  6.63212220E-07  3.93374423E-06 -7.23043781E-07
  2.56575799E-04 -9.56509917E-07 -1.94335176E-05  4.76287704E-06 -1.22035572E-04
 -2.97015169E-05 -5.94857471E-05  2.35280080E-06 -7.91487754E-05 -1.03241434E-04
 -7.78258645E-05 -1.30177667E-05  1.42222604E-06  1.32590641E-06  4.09609397E-06
  5.57570537E-05  3.62241203E-07 -5.43614711E-06  5.39487869E-07 -5.19634902E-06
  1.75799061E-05  3.08033549E-04  3.08660530E-07 -4.93939939E-06  1.98600400E-04
  2.95074427E-06  6.04005922E-07  1.55315137E-05  2.10589768E-07  9.15217478E-08
 -1.07870412E-06  3.64967159E-07  2.00262058E-05 -6.34585461E-07  6.04408511E-06
 -1.89992220E-05 -3.43997578E-04 -5.78325326E-06  4.89647986E-05  2.37899877E-04
 -5.79754141E-06 -2.94397154E-06 -3.12003501E-05 -2.59544170E-07 -9.87748567E-07
  9.56597198E-06 -1.52132395E-05  2.21860968E-05  6.24360963E-06 -5.70790179E-05
  1.57587487E-05  1.43568610E-04  3.51667537E-06 -3.21681085E-05  5.82305837E-05
 -2.85324949E-05 -5.26492984E-05 -2.09453555E-05  2.13358132E-06 -1.59117808E-06
  1.46020618E-05  1.00135580E-02  1.54916706E-04 -3.37776247E-06 -3.60304801E-06
 -1.09286718E-06 -1.68678380E-04  1.50321108E-05  1.37908879E-05  5.13478457E-06
 -8.93592656E-05  2.55064904E-05  6.07172263E-05  2.22763104E-06  7.05390921E-05
  5.23269964E-05  7.47655728E-05 -1.60764514E-05 -1.92089268E-07 -2.04053596E-06
 -1.52853383E-02 -2.30245003E-04  2.90481973E-06 -2.44163713E-06 -6.36942727E-07
  3.66632305E-04 -1.63668855E-05  1.04898881E-05  4.70472324E-06 -1.31809231E-04
 -3.77921164E-05  5.53500885E-05  2.38271645E-06 -1.27162289E-04 -1.34158890E-04
 -1.17124364E-04  1.84903196E-05  4.25167333E-07 -1.84467489E-06  9.95830199E-01
  1.51636699E-02 -4.33561189E-06  5.02243881E-05 -1.86311070E-05 -2.10278012E-02
  4.89762880E-06 -5.70539583E-05  2.04195365E-05  1.56625178E-03 -2.59247605E-06
  1.94380612E-05 -5.71588582E-06  7.55572140E-03  7.53888597E-03  7.55218632E-03
  1.30922751E-06 -5.58823679E-07  6.89434887E-06  4.21668678E-06  5.73825232E-05
  3.68342921E-07 -5.59703166E-06 -4.72876275E-06  2.14632659E-06  1.80441052E-05
  3.16988147E-04 -4.69749131E-06  2.02802457E-06  2.04361680E-04  1.07534546E-06
  2.56245104E-06  1.59473032E-05  1.04120063E-06 -1.01500568E-06  4.51361264E-07
  3.76967976E-07  2.05739589E-05  5.48392420E-06 -2.49256685E-06 -1.95042745E-05
 -3.53581661E-04  4.37909676E-05 -2.01913185E-05  2.45049297E-04 -3.59753137E-06
 -5.39304846E-06 -3.20118306E-05 -1.25622021E-06  8.67739888E-06 -3.92875370E-06
 -1.56214035E-05  2.26128872E-05 -5.15514737E-05  2.35280072E-05  1.61248006E-05
  1.46819208E-04 -2.91247937E-05  1.33082741E-05  5.99805440E-05 -4.91471201E-05
 -3.39320765E-05 -2.14232399E-05  1.06327193E-05  1.30530680E-05 -5.94860828E-06
  6.17677256E-03  9.65693219E-05 -4.47064414E-06 -1.93346511E-06 -1.04987684E-06
 -8.63410702E-05  1.83541475E-05  9.70021498E-06  5.20761216E-06 -9.86135674E-05
  6.66296029E-05  5.11638269E-06  2.35366319E-06  1.62834567E-05  4.75484933E-05
  4.56273200E-05 -6.01872170E-06 -1.98247377E-06  4.66535868E-07  9.95862353E-01
  1.51642197E-02  4.58102845E-05 -2.13494974E-05 -1.85824726E-05 -2.10272429E-02
 -5.24115858E-05  2.44464376E-05  2.04784539E-05  1.56344873E-03  1.65136156E-05
 -7.35872202E-06 -5.62999458E-06  7.54155456E-03  7.55268022E-03  7.55239584E-03
  7.85534007E-06  6.29131926E-06 -2.94563812E-06  1.52253675E-02  2.34336042E-04
 -1.43718552E-06  5.08302602E-06 -1.20855833E-06 -2.77800514E-04  4.41554835E-06
 -2.06229162E-05  5.33384071E-06 -8.33999093E-05  3.91573015E-05 -5.36028589E-05
  2.26966112E-06  1.08451441E-04  9.28260602E-05  1.14265619E-04  1.68627996E-05
 -1.63835380E-06  1.26608123E-06  2.55294224E-05  7.47450449E-04  2.90693663E-05
  1.30747779E-04 -6.67027948E-07 -3.82789903E-08  2.63623708E-04  7.97554687E-03
 -6.19133926E-06 -5.67549081E-07  3.71035730E-03  1.13487306E-05  1.13480261E-05
  1.43102693E-04 -1.11593748E-09 -6.61785746E-07 -1.12782158E-07  1.05000409E-03
 -1.29518087E-04  2.72452735E-07 -9.36134475E-08 -3.46826763E-04  1.98626956E-03
 -1.29814434E-05  1.27138849E-06  1.11889010E-02 -3.03987462E-05 -3.04116265E-05
 -5.41091022E-04 -3.37608315E-08  7.20578153E-07 -4.21291134E-08  9.93402376E-01
  4.92035282E-02 -4.11144896E-07  2.96970472E-08  3.35522184E-04 -2.49571097E-02
 -6.49303591E-07  1.26506982E-06  3.83796176E-03 -8.37947429E-03 -8.37944228E-03
 -8.32774700E-03  2.94632262E-07  1.54195271E-08  1.45657737E-08 -6.87714157E-06
  1.00835231E-05  2.90107098E-05  2.03144793E-05  1.38189524E-05  1.52723204E-04
 -3.14035184E-04 -2.20020826E-04 -1.53946682E-04  2.49530122E-03 -1.17268389E-03
 -8.22124516E-04 -6.86550544E-04 -3.21862891E-05 -3.49922475E-05 -1.02492424E-04
  4.46794270E-06  7.10965692E-05  4.97461471E-05 -6.84644769E-06  9.90339301E-06
 -3.23773130E-05  1.51086093E-05  1.38278452E-05  1.51299019E-04  3.48854913E-04
 -1.62643718E-04 -1.53472272E-04  2.49394247E-03  1.29947482E-03 -6.05368182E-04
 -6.82364078E-04 -2.90003105E-05 -3.56797311E-05 -1.02685976E-04 -4.70334537E-06
 -7.89820252E-05  3.68207845E-05 -6.85923553E-06  9.98335661E-06  3.12075467E-06
 -3.54557314E-05  1.38381901E-05  1.51909332E-04 -3.34587368E-05  3.82774777E-04
 -1.53840323E-04  2.49454988E-03 -1.23911062E-04  1.42734166E-03 -6.84703167E-04
 -3.75538289E-05 -2.82107825E-05 -1.02559608E-04 -1.01825795E-06  7.62848972E-06
 -8.66755305E-05 -6.06274785E-04  1.17426106E-03  5.55444843E-01  2.64843199E-02
  1.35781464E-07 -3.34495069E-08 -4.76161956E-04 -1.56869934E-03  2.96549925E-08
  1.80672884E-07  1.21319295E-03 -5.99136840E-03 -5.99136827E-03 -4.93282684E-03
 -1.52456308E-09 -8.65566091E-07  6.42303954E-08  8.21932947E-01  4.03658966E-02
  2.21894484E-07  1.79517403E-07  6.80220190E-04 -6.56518065E-03 -2.33203182E-06
 -4.21588227E-07 -5.61934167E-05 -8.64026013E-03 -8.64026923E-03 -6.71882260E-03
  7.92619055E-09 -2.49080200E-06  1.40572191E-07 -1.03574472E-03  2.49006315E-04
 -8.98595410E-07  5.74516167E-08  6.96177568E-04 -9.15089379E-05  2.43377008E-06
  4.97721696E-07 -3.73697968E-04 -5.10321060E-05 -5.10456550E-05 -9.28665885E-04
  7.13197242E-08  6.29264379E-07 -2.65104111E-07 -2.20642764E-06 -4.41705866E-05
  2.46075044E-07  1.52095578E-07 -1.54227162E-05 -1.45080972E-04  1.62132876E-05
  1.14834544E-05  1.08053668E-04  6.06731896E-04 -2.29358711E-04 -1.60961942E-04
 -4.33904016E-04 -7.23619002E-05 -9.82811845E-05 -9.36735639E-06  4.12058219E-05
  6.08404165E-05  4.27186312E-05 -2.20629795E-06 -4.41216190E-05 -2.52945703E-07
  1.33406224E-07 -1.53714007E-05 -1.45028399E-04 -1.80158904E-05  8.31368454E-06
  1.07710098E-04  6.07514949E-04  2.55230165E-04 -1.18967739E-04 -4.33217518E-04
 -6.05611946E-05 -1.09511435E-04 -9.55291119E-06 -3.37326982E-05 -6.75787487E-05
  3.14814911E-05 -2.20689396E-06 -4.41459806E-05  5.64961264E-08 -2.94476020E-07
 -1.53886063E-05 -1.45082863E-04  1.54376905E-06 -1.97182798E-05  1.07843744E-04
  6.07373298E-04 -2.42185180E-05  2.79851734E-04 -4.33701031E-04 -1.22628520E-04
 -4.77380789E-05 -9.40199896E-06 -7.65061585E-06  6.38648106E-06 -7.41926445E-05
 -9.53380543E-04 -1.52450964E-04  8.22619250E-01  4.14718438E-02 -1.88236176E-06
 -1.64996337E-07  7.75005762E-04 -1.71947760E-02  8.85758084E-06  1.06577798E-07
 -6.71174108E-03 -8.32488093E-03 -8.32488226E-03 -6.96997534E-03  1.78099474E-10
 -1.13719406E-06 -6.97069230E-08 -5.56452279E-01 -2.88217263E-02 -2.09836284E-06
 -1.31357700E-07  4.83375615E-04  1.63883835E-02  1.20648412E-05  4.10596408E-07
 -6.36131446E-03  5.43309326E-03  5.43310121E-03  4.44414206E-03 -7.12770002E-09
  1.71836510E-06 -1.04263859E-07  7.14860192E-04 -4.66499900E-05  6.28357223E-07
 -2.76825223E-08 -4.25431361E-04  1.09679412E-03 -3.13633658E-06 -6.84298045E-07
  7.38602610E-05  6.94321763E-05  6.94303550E-05  5.34668168E-04 -9.80723793E-08
 -1.32925550E-07  1.66005271E-07  1.25233718E-06  3.49397219E-05  9.72596033E-07
  6.99474911E-07  1.15749303E-05  8.41055009E-05 -1.95079394E-05 -1.37807262E-05
 -8.77833021E-05 -4.29036761E-04  1.64355172E-04  1.15260819E-04  2.87496579E-04
  6.52991541E-05  8.49809990E-05  2.31933584E-05 -3.11776149E-05 -2.98258745E-05
 -2.09631861E-05  1.25236393E-06  3.48927440E-05 -1.07591095E-06  4.87165818E-07
  1.15499128E-05  8.40604556E-05  2.15536876E-05 -9.96548919E-06 -8.75569234E-05
 -4.30292158E-04 -1.83147974E-04  8.54416206E-05  2.87045461E-04  5.63898566E-05
  9.34038393E-05  2.33484294E-05  2.55609871E-05  3.31619685E-05 -1.54385379E-05
  1.25274241E-06  3.49174508E-05  7.50907662E-08 -1.17910937E-06  1.15633061E-05
  8.41042943E-05 -1.90114131E-06  2.36786328E-05 -8.76767443E-05 -4.29897728E-04
  1.75020768E-05 -2.00693328E-04  2.87388933E-04  1.03362664E-04  4.66732604E-05
  2.32570255E-05  5.86523619E-06 -3.10628983E-06  3.63924343E-05  3.14791615E-05
  4.53342855E-04  8.24279998E-08 -1.12151436E-05 -1.49206071E-05 -1.08625754E-05
  5.27603374E-05  4.30207137E-03 -4.03013143E-04 -2.94874706E-04  2.11037426E-03
 -7.70596410E-08  1.84696462E-06  2.09739218E-05 -3.02824377E-06 -6.68002175E-05
 -4.91189549E-05 -6.37998167E-05 -3.52851369E-04 -1.47071567E-04 -1.08495018E-04
 -1.02390565E-04  5.30399847E-04  1.14748559E-03  8.51488990E-04  5.73582384E-03
 -5.85589870E-05 -1.39142868E-04 -1.52090820E-05  1.19162749E-04  9.36806133E-05
  6.92071677E-05  8.07023358E-05  1.08226627E-03 -1.81855132E-04 -1.33749562E-04
  2.22409789E-05 -5.48583882E-03 -1.78316169E-04 -1.31114117E-04  2.11844051E-03
 -3.25138840E-04 -1.03900841E-05 -5.40188199E-05 -4.65272237E-04 -2.19165181E-04
 -1.61746727E-04 -2.83743151E-01  1.01900903E+00 -4.04313643E-03 -2.83370262E-03
 -1.84972855E-03  7.41201278E-02 -1.19098842E-03 -8.39771424E-04 -5.55917669E-04
 -1.35085168E-02  1.48157098E-03  1.06321644E-03  5.85999649E-04 -1.59768446E-02
 -1.62193718E-02 -1.63861833E-02  3.69671549E-04  2.76208579E-04  1.94124715E-04
  1.13566618E-02 -4.08874327E-02 -1.71129152E-04  1.02008264E-04  8.30777168E-05
 -3.25410730E-03 -1.47152807E-04 -9.93509864E-05 -4.13164351E-05  1.90248927E-03
  1.17249005E-03  2.77339708E-04 -1.19628526E-04  7.68369905E-04  4.29153169E-04
  4.35009713E-04  8.10995372E-05 -2.83582456E-05  3.27390912E-05  1.96566927E-02
 -7.06982661E-02  4.91990802E-05 -3.39558761E-04  1.37607637E-04 -5.43025332E-03
 -1.35735903E-04 -1.47556606E-04 -2.68106371E-05  2.33520014E-03  6.34381069E-04
  1.08219648E-03 -1.40209166E-04  9.92314138E-04  1.14414051E-03  9.08289202E-04
  1.84128353E-04  1.97537277E-05 -2.97185947E-05  3.40622601E-05  4.87184281E-04