CCCCl3_new_1 0.0                                                        
SP        RB3LYP                                                      6-31G(d)            
Number of atoms                            I               10
Info1-9                                    I   N=           9
          19          19           0           0           0         110
           1          18        -502
Full Title                                 C   N=           2
CCCCl3_new_1 0.0        
Route                                      C   N=           2
# nosymm b3lyp/6-31G*   
Charge                                     I                0
Multiplicity                               I                1
Number of electrons                        I               78
Number of alpha electrons                  I               39
Number of beta electrons                   I               39
Number of basis functions                  I              123
Number of independent functions            I              123
Number of point charges in /Mol/           I                0
Number of translation vectors              I                0
Atomic numbers                             I   N=          10
           6           1           6           6           6          17
          17          17           1           1
Nuclear charges                            R   N=          10
  6.00000000E+00  1.00000000E+00  6.00000000E+00  6.00000000E+00  6.00000000E+00
  1.70000000E+01  1.70000000E+01  1.70000000E+01  1.00000000E+00  1.00000000E+00
Current cartesian coordinates              R   N=          30
  0.00000000E+00  0.00000000E+00  0.00000000E+00  1.75773240E+00 -8.32135797E-01
 -7.16669165E-01  0.00000000E+00  0.00000000E+00  2.75292925E+00  8.26040863E-02
 -8.88762763E-03  5.06595096E+00  1.91684369E-01  1.09180628E-02  7.77573988E+00
 -2.42358037E+00 -1.81633997E+00  9.07799773E+00  3.12212995E+00 -1.35524109E+00
  8.88071029E+00 -5.73163949E-02  3.21602137E+00  8.96323383E+00 -1.24468096E-01
  1.93090303E+00 -7.38847936E-01 -1.58215239E+00 -1.10480047E+00 -7.50957074E-01
Number of symbols in /Mol/                 I                0
Force Field                                I                0
Atom Types                                 C   N=          10
                                                            
                                                            
Int Atom Types                             I   N=          10
           0           0           0           0           0           0
           0           0           0           0
MM charges                                 R   N=          10
  0.00000000E+00  0.00000000E+00  0.00000000E+00  0.00000000E+00  0.00000000E+00
  0.00000000E+00  0.00000000E+00  0.00000000E+00  0.00000000E+00  0.00000000E+00
Integer atomic weights                     I   N=          10
          12           1          12          12          12          35
          35          35           1           1
Real atomic weights                        R   N=          10
  1.20000000E+01  1.00782504E+00  1.20000000E+01  1.20000000E+01  1.20000000E+01
  3.49688527E+01  3.49688527E+01  3.49688527E+01  1.00782504E+00  1.00782504E+00
Atom fragment info                         I   N=          10
           0           0           0           0           0           0
           0           0           0           0
Atom residue num                           I   N=          10
           0           0           0           0           0           0
           0           0           0           0
Nuclear spins                              I   N=          10
           0           1           0           0           0           3
           3           3           1           1
Nuclear ZEff                               R   N=          10
 -3.60000000E+00 -1.00000000E+00 -3.60000000E+00 -3.60000000E+00 -3.60000000E+00
 -1.42400000E+01 -1.42400000E+01 -1.42400000E+01 -1.00000000E+00 -1.00000000E+00
Nuclear ZNuc                               R   N=          10
  6.00000000E+00  1.00000000E+00  6.00000000E+00  6.00000000E+00  6.00000000E+00
  1.70000000E+01  1.70000000E+01  1.70000000E+01  1.00000000E+00  1.00000000E+00
Nuclear QMom                               R   N=          10
  0.00000000E+00  0.00000000E+00  0.00000000E+00  0.00000000E+00  0.00000000E+00
 -8.16500000E+00 -8.16500000E+00 -8.16500000E+00  0.00000000E+00  0.00000000E+00
Nuclear GFac                               R   N=          10
  0.00000000E+00  2.79284600E+00  0.00000000E+00  0.00000000E+00  0.00000000E+00
  8.21874000E-01  8.21874000E-01  8.21874000E-01  2.79284600E+00  2.79284600E+00
MicOpt                                     I   N=          10
          -1          -1          -1          -1          -1          -1
          -1          -1          -1          -1
Number of residues                         I                0
Number of secondary structures             I                0
Number of contracted shells                I               37
Number of primitive shells                 I              107
Pure/Cartesian d shells                    I                1
Pure/Cartesian f shells                    I                0
Highest angular momentum                   I                2
Largest degree of contraction              I                6
Shell types                                I   N=          37
           0          -1          -1           2           0           0
           0          -1          -1           2           0          -1
          -1           2           0          -1          -1           2
           0          -1          -1          -1           2           0
          -1          -1          -1           2           0          -1
          -1          -1           2           0           0           0
           0
Number of primitives per shell             I   N=          37
           6           3           1           1           3           1
           6           3           1           1           6           3
           1           1           6           3           1           1
           6           6           3           1           1           6
           6           3           1           1           6           6
           3           1           1           3           1           3
           1
Shell to atom map                          I   N=          37
           1           1           1           1           2           2
           3           3           3           3           4           4
           4           4           5           5           5           5
           6           6           6           6           6           7
           7           7           7           7           8           8
           8           8           8           9           9          10
          10
Primitive exponents                        R   N=         107
  3.04752488E+03  4.57369518E+02  1.03948685E+02  2.92101553E+01  9.28666296E+00
  3.16392696E+00  7.86827235E+00  1.88128854E+00  5.44249258E-01  1.68714478E-01
  8.00000000E-01  1.87311370E+01  2.82539436E+00  6.40121692E-01  1.61277759E-01
  3.04752488E+03  4.57369518E+02  1.03948685E+02  2.92101553E+01  9.28666296E+00
  3.16392696E+00  7.86827235E+00  1.88128854E+00  5.44249258E-01  1.68714478E-01
  8.00000000E-01  3.04752488E+03  4.57369518E+02  1.03948685E+02  2.92101553E+01
  9.28666296E+00  3.16392696E+00  7.86827235E+00  1.88128854E+00  5.44249258E-01
  1.68714478E-01  8.00000000E-01  3.04752488E+03  4.57369518E+02  1.03948685E+02
  2.92101553E+01  9.28666296E+00  3.16392696E+00  7.86827235E+00  1.88128854E+00
  5.44249258E-01  1.68714478E-01  8.00000000E-01  2.51801000E+04  3.78035000E+03
  8.60474000E+02  2.42145000E+02  7.73349000E+01  2.62470000E+01  4.91765000E+02
  1.16984000E+02  3.74153000E+01  1.37834000E+01  5.45215000E+00  2.22588000E+00
  3.18649000E+00  1.14427000E+00  4.20377000E-01  1.42657000E-01  7.50000000E-01
  2.51801000E+04  3.78035000E+03  8.60474000E+02  2.42145000E+02  7.73349000E+01
  2.62470000E+01  4.91765000E+02  1.16984000E+02  3.74153000E+01  1.37834000E+01
  5.45215000E+00  2.22588000E+00  3.18649000E+00  1.14427000E+00  4.20377000E-01
  1.42657000E-01  7.50000000E-01  2.51801000E+04  3.78035000E+03  8.60474000E+02
  2.42145000E+02  7.73349000E+01  2.62470000E+01  4.91765000E+02  1.16984000E+02
  3.74153000E+01  1.37834000E+01  5.45215000E+00  2.22588000E+00  3.18649000E+00
  1.14427000E+00  4.20377000E-01  1.42657000E-01  7.50000000E-01  1.87311370E+01
  2.82539436E+00  6.40121692E-01  1.61277759E-01  1.87311370E+01  2.82539436E+00
  6.40121692E-01  1.61277759E-01
Contraction coefficients                   R   N=         107
  1.83473713E-03  1.40373228E-02  6.88426223E-02  2.32184443E-01  4.67941348E-01
  3.62311985E-01 -1.19332420E-01 -1.60854152E-01  1.14345644E+00  1.00000000E+00
  1.00000000E+00  3.34946043E-02  2.34726953E-01  8.13757326E-01  1.00000000E+00
  1.83473713E-03  1.40373228E-02  6.88426223E-02  2.32184443E-01  4.67941348E-01
  3.62311985E-01 -1.19332420E-01 -1.60854152E-01  1.14345644E+00  1.00000000E+00
  1.00000000E+00  1.83473713E-03  1.40373228E-02  6.88426223E-02  2.32184443E-01
  4.67941348E-01  3.62311985E-01 -1.19332420E-01 -1.60854152E-01  1.14345644E+00
  1.00000000E+00  1.00000000E+00  1.83473713E-03  1.40373228E-02  6.88426223E-02
  2.32184443E-01  4.67941348E-01  3.62311985E-01 -1.19332420E-01 -1.60854152E-01
  1.14345644E+00  1.00000000E+00  1.00000000E+00  1.83295985E-03  1.40341988E-02
  6.90973943E-02  2.37451980E-01  4.83033960E-01  3.39855972E-01 -2.29739142E-03
 -3.07137189E-02 -1.12528069E-01  4.50163278E-02  5.89353363E-01  4.65206287E-01
 -2.51828028E-01  6.15892514E-02  1.06018433E+00  1.00000000E+00  1.00000000E+00
  1.83295985E-03  1.40341988E-02  6.90973943E-02  2.37451980E-01  4.83033960E-01
  3.39855972E-01 -2.29739142E-03 -3.07137189E-02 -1.12528069E-01  4.50163278E-02
  5.89353363E-01  4.65206287E-01 -2.51828028E-01  6.15892514E-02  1.06018433E+00
  1.00000000E+00  1.00000000E+00  1.83295985E-03  1.40341988E-02  6.90973943E-02
  2.37451980E-01  4.83033960E-01  3.39855972E-01 -2.29739142E-03 -3.07137189E-02
 -1.12528069E-01  4.50163278E-02  5.89353363E-01  4.65206287E-01 -2.51828028E-01
  6.15892514E-02  1.06018433E+00  1.00000000E+00  1.00000000E+00  3.34946043E-02
  2.34726953E-01  8.13757326E-01  1.00000000E+00  3.34946043E-02  2.34726953E-01
  8.13757326E-01  1.00000000E+00
P(S=P) Contraction coefficients            R   N=         107
  0.00000000E+00  0.00000000E+00  0.00000000E+00  0.00000000E+00  0.00000000E+00
  0.00000000E+00  6.89990666E-02  3.16423961E-01  7.44308291E-01  1.00000000E+00
  0.00000000E+00  0.00000000E+00  0.00000000E+00  0.00000000E+00  0.00000000E+00
  0.00000000E+00  0.00000000E+00  0.00000000E+00  0.00000000E+00  0.00000000E+00
  0.00000000E+00  6.89990666E-02  3.16423961E-01  7.44308291E-01  1.00000000E+00
  0.00000000E+00  0.00000000E+00  0.00000000E+00  0.00000000E+00  0.00000000E+00
  0.00000000E+00  0.00000000E+00  6.89990666E-02  3.16423961E-01  7.44308291E-01
  1.00000000E+00  0.00000000E+00  0.00000000E+00  0.00000000E+00  0.00000000E+00
  0.00000000E+00  0.00000000E+00  0.00000000E+00  6.89990666E-02  3.16423961E-01
  7.44308291E-01  1.00000000E+00  0.00000000E+00  0.00000000E+00  0.00000000E+00
  0.00000000E+00  0.00000000E+00  0.00000000E+00  0.00000000E+00  3.98940088E-03
  3.03177067E-02  1.29880029E-01  3.27951072E-01  4.53527100E-01  2.52154056E-01
 -1.42993147E-02  3.23572333E-01  7.43507765E-01  1.00000000E+00  0.00000000E+00
  0.00000000E+00  0.00000000E+00  0.00000000E+00  0.00000000E+00  0.00000000E+00
  0.00000000E+00  3.98940088E-03  3.03177067E-02  1.29880029E-01  3.27951072E-01
  4.53527100E-01  2.52154056E-01 -1.42993147E-02  3.23572333E-01  7.43507765E-01
  1.00000000E+00  0.00000000E+00  0.00000000E+00  0.00000000E+00  0.00000000E+00
  0.00000000E+00  0.00000000E+00  0.00000000E+00  3.98940088E-03  3.03177067E-02
  1.29880029E-01  3.27951072E-01  4.53527100E-01  2.52154056E-01 -1.42993147E-02
  3.23572333E-01  7.43507765E-01  1.00000000E+00  0.00000000E+00  0.00000000E+00
  0.00000000E+00  0.00000000E+00  0.00000000E+00  0.00000000E+00  0.00000000E+00
  0.00000000E+00  0.00000000E+00
Coordinates of each shell                  R   N=         111
  0.00000000E+00  0.00000000E+00  0.00000000E+00  0.00000000E+00  0.00000000E+00
  0.00000000E+00  0.00000000E+00  0.00000000E+00  0.00000000E+00  0.00000000E+00
  0.00000000E+00  0.00000000E+00  1.75773240E+00 -8.32135797E-01 -7.16669165E-01
  1.75773240E+00 -8.32135797E-01 -7.16669165E-01  0.00000000E+00  0.00000000E+00
  2.75292925E+00  0.00000000E+00  0.00000000E+00  2.75292925E+00  0.00000000E+00
  0.00000000E+00  2.75292925E+00  0.00000000E+00  0.00000000E+00  2.75292925E+00
  8.26040863E-02 -8.88762763E-03  5.06595096E+00  8.26040863E-02 -8.88762763E-03
  5.06595096E+00  8.26040863E-02 -8.88762763E-03  5.06595096E+00  8.26040863E-02
 -8.88762763E-03  5.06595096E+00  1.91684369E-01  1.09180628E-02  7.77573988E+00
  1.91684369E-01  1.09180628E-02  7.77573988E+00  1.91684369E-01  1.09180628E-02
  7.77573988E+00  1.91684369E-01  1.09180628E-02  7.77573988E+00 -2.42358037E+00
 -1.81633997E+00  9.07799773E+00 -2.42358037E+00 -1.81633997E+00  9.07799773E+00
 -2.42358037E+00 -1.81633997E+00  9.07799773E+00 -2.42358037E+00 -1.81633997E+00
  9.07799773E+00 -2.42358037E+00 -1.81633997E+00  9.07799773E+00  3.12212995E+00
 -1.35524109E+00  8.88071029E+00  3.12212995E+00 -1.35524109E+00  8.88071029E+00
  3.12212995E+00 -1.35524109E+00  8.88071029E+00  3.12212995E+00 -1.35524109E+00
  8.88071029E+00  3.12212995E+00 -1.35524109E+00  8.88071029E+00 -5.73163949E-02
  3.21602137E+00  8.96323383E+00 -5.73163949E-02  3.21602137E+00  8.96323383E+00
 -5.73163949E-02  3.21602137E+00  8.96323383E+00 -5.73163949E-02  3.21602137E+00
  8.96323383E+00 -5.73163949E-02  3.21602137E+00  8.96323383E+00 -1.24468096E-01
  1.93090303E+00 -7.38847936E-01 -1.24468096E-01  1.93090303E+00 -7.38847936E-01
 -1.58215239E+00 -1.10480047E+00 -7.50957074E-01 -1.58215239E+00 -1.10480047E+00
 -7.50957074E-01
Num ILSW                                   I              100
ILSW                                       I   N=         100
           0           1           0           0           2           0
           0           0           0           0         402          -1
           5           0           0           0           0           0
           0           0           1           0           0           0
           1           1           0           0           0           0
           0           0      100000           0          -1           0
           0           0           0           0           0           0
           0           0           0           1           0           0
           0 -2000000000           1           0           0           0
           0           0           4          52           0           0
           0           0           5           0           0           0
           0           0           0           0           0           1
           0           0           0           0           0           0
           0           0           0           0           0           0
           0           0           0           0           0           0
           0           0           0           0           0           0
           0           0           0           0
Num RLSW                                   I               52
RLSW                                       R   N=          52
  8.00000000E-01  7.20000000E-01  1.00000000E+00  8.10000000E-01  2.00000000E-01
  0.00000000E+00  0.00000000E+00  1.00000000E+00  0.00000000E+00  0.00000000E+00
  0.00000000E+00  0.00000000E+00  1.00000000E+00  0.00000000E+00  0.00000000E+00
  0.00000000E+00  0.00000000E+00  1.00000000E+00  0.00000000E+00  0.00000000E+00
  0.00000000E+00  0.00000000E+00  1.00000000E+00  0.00000000E+00  0.00000000E+00
  0.00000000E+00  0.00000000E+00  1.00000000E+00  0.00000000E+00  0.00000000E+00
  0.00000000E+00  0.00000000E+00  1.00000000E+00  0.00000000E+00  0.00000000E+00
  0.00000000E+00  0.00000000E+00  0.00000000E+00  1.00000000E+00  1.00000000E+00
  0.00000000E+00  1.00000000E+00  0.00000000E+00  0.00000000E+00  0.00000000E+00
  0.00000000E+00  0.00000000E+00  0.00000000E+00  0.00000000E+00  0.00000000E+00
  0.00000000E+00  0.00000000E+00
MxBond                                     I                4
NBond                                      I   N=          10
           4           1           2           2           4           1
           1           1           1           1
IBond                                      I   N=          40
           2           3           9          10           1           0
           0           0           1           4           0           0
           3           5           0           0           4           6
           7           8           5           0           0           0
           5           0           0           0           5           0
           0           0           1           0           0           0
           1           0           0           0
RBond                                      R   N=          40
  1.00000000E+00  1.00000000E+00  1.00000000E+00  1.00000000E+00  1.00000000E+00
  0.00000000E+00  0.00000000E+00  0.00000000E+00  1.00000000E+00  3.00000000E+00
  0.00000000E+00  0.00000000E+00  3.00000000E+00  1.00000000E+00  0.00000000E+00
  0.00000000E+00  1.00000000E+00  1.00000000E+00  1.00000000E+00  1.00000000E+00
  1.00000000E+00  0.00000000E+00  0.00000000E+00  0.00000000E+00  1.00000000E+00
  0.00000000E+00  0.00000000E+00  0.00000000E+00  1.00000000E+00  0.00000000E+00
  0.00000000E+00  0.00000000E+00  1.00000000E+00  0.00000000E+00  0.00000000E+00
  0.00000000E+00  1.00000000E+00  0.00000000E+00  0.00000000E+00  0.00000000E+00
Virial Ratio                               R      2.003767293851318E+00
SCF Energy                                 R     -1.534733789591458E+03
Total Energy                               R     -1.534733789591458E+03
RMS Density                                R      9.299529657949064E-09
Job Status                                 I                1
Nuclear derivative order                   I                0
External E-field                           R   N=          35
  0.00000000E+00  0.00000000E+00  0.00000000E+00  0.00000000E+00  0.00000000E+00
  0.00000000E+00  0.00000000E+00  0.00000000E+00  0.00000000E+00  0.00000000E+00
  0.00000000E+00  0.00000000E+00  0.00000000E+00  0.00000000E+00  0.00000000E+00
  0.00000000E+00  0.00000000E+00  0.00000000E+00  0.00000000E+00  0.00000000E+00
  0.00000000E+00  0.00000000E+00  0.00000000E+00  0.00000000E+00  0.00000000E+00
  0.00000000E+00  0.00000000E+00  0.00000000E+00  0.00000000E+00  0.00000000E+00
  0.00000000E+00  0.00000000E+00  0.00000000E+00  0.00000000E+00  0.00000000E+00
IOpCl                                      I                0
IROHF                                      I                0
Alpha Orbital Energies                     R   N=         123
 -1.01565442E+02 -1.01564335E+02 -1.01562664E+02 -1.03914793E+01 -1.02319857E+01
 -1.02312747E+01 -1.02179445E+01 -9.48217073E+00 -9.48103993E+00 -9.47928596E+00
 -7.24697359E+00 -7.24584396E+00 -7.24408917E+00 -7.23576059E+00 -7.23569101E+00
 -7.23462905E+00 -7.23456726E+00 -7.23288139E+00 -7.23283189E+00 -9.45181918E-01
 -8.36438806E-01 -8.33641078E-01 -8.07773230E-01 -7.45192469E-01 -6.64697265E-01
 -5.31332363E-01 -4.83208394E-01 -4.81361562E-01 -4.79979721E-01 -4.54372240E-01
 -4.52461912E-01 -3.53394756E-01 -3.53253766E-01 -3.36857648E-01 -3.25156636E-01
 -3.23962161E-01 -3.04710268E-01 -2.83823734E-01 -2.83723154E-01 -4.79803236E-02
 -3.85714199E-02 -3.62365285E-02  7.57795218E-02  7.65032335E-02  9.23288537E-02
  1.52936826E-01  1.67157102E-01  1.67765443E-01  2.17920424E-01  2.99647563E-01
  3.60452936E-01  3.60739555E-01  3.64814530E-01  3.89549276E-01  4.11178873E-01
  4.11630906E-01  4.25940049E-01  4.61353679E-01  4.62542614E-01  4.63378825E-01
  5.10298089E-01  5.11766666E-01  5.13334581E-01  5.48941381E-01  5.50604767E-01
  6.02630896E-01  6.03887965E-01  6.29869348E-01  6.33420694E-01  7.01632229E-01
  7.02869102E-01  7.07594689E-01  7.31296139E-01  8.23715839E-01  8.24897850E-01
  8.48727813E-01  8.50848688E-01  8.51260662E-01  8.54777086E-01  8.63158156E-01
  8.64994523E-01  8.90550186E-01  8.91641969E-01  9.47942855E-01  9.51587695E-01
  9.71267444E-01  1.03077611E+00  1.03403070E+00  1.05284101E+00  1.13243741E+00
  1.13273468E+00  1.16707144E+00  1.22158178E+00  1.41505589E+00  1.42017365E+00
  1.45393636E+00  1.53801311E+00  1.53900730E+00  1.57740736E+00  1.64641059E+00
  1.65638571E+00  1.69559063E+00  1.88868690E+00  1.89241386E+00  1.97332293E+00
  1.97627940E+00  2.01818707E+00  2.09140327E+00  2.10261172E+00  2.19171765E+00
  2.24103744E+00  2.24284383E+00  2.70763814E+00  2.82149007E+00  2.82309541E+00
  3.43528857E+00  4.01945401E+00  4.08798217E+00  4.26905456E+00  4.26936138E+00
  4.27639810E+00  4.44990679E+00  4.74961561E+00
Alpha MO coefficients                      R   N=       15129
 -6.69370093E-07 -2.85173985E-06 -8.92296204E-07  3.81132659E-07  4.27485660E-06
  1.79963518E-04 -9.51024708E-07 -1.77524873E-07  6.70800552E-05  3.86389524E-07
  1.71827461E-07 -4.40240911E-06 -8.55588401E-08 -7.44738899E-07  2.63946969E-07
 -3.07043426E-06 -2.67174203E-06 -3.07042498E-07 -1.19263912E-05  4.92442155E-06
 -1.84109275E-06  1.20790718E-05  4.90279519E-04  1.70247601E-05 -4.72408588E-06
  4.34246329E-04  1.63595844E-07  1.25233703E-06  2.28137336E-05  7.93428451E-07
  2.17045368E-06 -5.95723711E-07  1.31822448E-06  2.72116793E-05 -5.91946627E-06
  2.20999144E-06 -1.77411581E-05 -5.52215865E-04 -2.80283373E-05  2.09857741E-05
  4.41076764E-04 -3.46520221E-06 -3.41554117E-06 -3.48356946E-05 -4.48822786E-07
 -1.14254995E-05  5.12424000E-06 -1.46559104E-05  2.07481178E-05  5.28625649E-05
 -2.45151012E-05  1.64706639E-05  4.08891560E-05  3.38270043E-05 -1.30310289E-05
  9.62587441E-05 -4.19591461E-05 -3.08043353E-05 -1.79397150E-05  7.30284050E-06
 -9.96941347E-06  5.16016727E-06 -2.44175922E-04 -7.48040671E-07  3.82975616E-06
  1.54178457E-06 -1.04047726E-06  4.73567230E-05 -1.53222762E-05 -8.19935911E-06
  5.23875302E-06 -1.03764520E-04 -6.54585685E-05 -3.30617353E-06  3.41676858E-06
 -3.02985153E-05  1.00532914E-06 -2.01718776E-06 -5.29685513E-06  2.67433514E-06
 -4.56337265E-07  9.95997777E-01  1.51660763E-02 -4.53387888E-05  2.12001470E-05
 -1.73388802E-05 -2.10283668E-02  5.14263527E-05 -2.38938766E-05  1.89366650E-05
  1.56524910E-03 -1.71573429E-05  7.72619879E-06 -5.78271671E-06  7.54237256E-03
  7.55410445E-03  7.55322953E-03  8.12731597E-06 -6.09812326E-06  2.76098753E-06
 -6.13726504E-04 -6.38494017E-06  1.25186087E-06 -3.94382505E-06 -8.78588536E-07
  5.50011877E-05 -3.42148215E-06  1.72122248E-05  4.58804172E-06 -1.04873588E-04
 -3.94493016E-05  5.30199293E-05  1.85067266E-06 -1.00289135E-05 -2.49593997E-05
 -4.56675355E-06  1.69692823E-05  1.55200038E-06 -9.66983704E-07 -3.07403145E-06
 -6.64034451E-07 -3.16727998E-06 -7.81166782E-07 -4.73560898E-07 -1.87197532E-06
  9.70477318E-08 -1.24475716E-06  3.68098076E-06  1.58906612E-04 -2.92562036E-06
  4.36688602E-06  5.89400484E-05  2.17177310E-08  9.59487922E-07 -4.28494895E-06
  1.12226304E-07 -3.23206581E-07 -2.68106056E-07 -2.10122269E-06  7.92040631E-07
 -8.69480123E-08 -1.10224559E-05  4.16047462E-07  4.87009275E-06  1.26106518E-05
  4.53180718E-04  9.74754944E-06  3.00795229E-06  3.93476976E-04  2.22196077E-06
  3.24004366E-07  2.22055866E-05  2.28685589E-07  9.11945689E-07  1.00644298E-06
  1.17897310E-06  2.63849517E-05 -2.99519190E-07 -5.91173059E-06 -1.78168407E-05
 -5.10536365E-04  2.14849428E-05 -5.10258420E-05  4.03275347E-04 -3.94153317E-06
 -3.06722538E-06 -3.45404179E-05 -5.56738457E-07 -1.67725897E-07 -1.06907439E-05
 -1.47561879E-05  1.76134137E-05 -3.80281685E-06  5.71703510E-05  1.75494309E-05
  5.36674384E-05 -1.89075960E-06  3.73373960E-05  9.14129471E-05 -2.74688498E-05
 -4.06409506E-05 -1.78438703E-05  8.63926973E-07  1.72956676E-06 -1.06723678E-05
 -4.16062570E-04 -3.48360874E-06  2.77350078E-06  3.11043930E-06 -1.01335773E-06
  5.10760104E-05 -1.30872473E-05 -1.19371080E-05  5.21329028E-06 -1.03547290E-04
 -2.55639884E-05 -6.00343841E-05  2.28878441E-06 -7.37755280E-06 -2.52165463E-05
 -3.48571862E-06 -1.57837036E-05  2.04450751E-07  2.37676122E-06  6.15175337E-04
  1.23383409E-05 -3.26319164E-06  2.57766571E-06 -7.24354584E-07  2.87763315E-05
  1.47374011E-05 -9.26283306E-06  3.82741498E-06 -1.01585277E-04  3.51836221E-05
 -5.51736020E-05 -5.13072280E-08 -3.88107476E-06 -1.20823960E-05  4.93765911E-06
  1.84258054E-05  3.91586668E-07  9.74054953E-07  9.95997741E-01  1.51659327E-02
  3.93333773E-06 -4.92809525E-05 -1.84711259E-05 -2.10275558E-02 -4.17275950E-06
  5.66758740E-05  2.05602166E-05  1.56481494E-03  1.11104855E-06 -1.83178427E-05
 -6.27017736E-06  7.55689689E-03  7.53832914E-03  7.55270645E-03  1.62118993E-06
  4.45466194E-07 -7.40751484E-06 -3.22769236E-06 -3.88379347E-06 -2.59750441E-06
 -9.30441583E-08 -4.40604662E-07 -1.96866030E-06  9.98915050E-07  6.33519265E-07
  4.17188174E-06  1.69654031E-04 -5.80161433E-06 -1.19667947E-06  6.30748866E-05
  7.29263127E-07  6.50670424E-07 -4.19887986E-06  5.89463735E-07 -8.20361037E-08
  3.03501495E-07 -2.21732862E-06  9.09989009E-07 -3.23802075E-07 -1.19027018E-05
 -3.16162985E-06 -2.67407918E-06  1.24844212E-05  4.89239304E-04  6.53993241E-06
 -5.05690544E-06  4.23397329E-04  3.15721240E-07  1.01225220E-06  2.25145467E-05
 -9.89058777E-07 -9.50445633E-08 -8.81375962E-07  1.30921406E-06  2.69440497E-05
  3.75294592E-06  2.95640898E-06 -1.80961221E-05 -5.37128121E-04  6.02621171E-05
  2.77679476E-05  4.37414346E-04 -2.52085047E-06 -3.28911277E-06 -3.52607393E-05
  7.56388835E-07  7.25995752E-06  6.07759659E-06 -1.45930261E-05  1.31863174E-05
 -4.58724427E-05 -3.26165641E-05  2.01693377E-05  2.92840526E-05 -2.87591113E-05
 -1.85890922E-05  1.01948468E-04 -3.07537074E-05 -2.84078413E-05 -1.68755450E-05
 -3.95483706E-06  7.58084238E-06  4.75775115E-06  9.95997956E-01  1.51658366E-02
  3.96474989E-05  2.76468859E-05 -1.99500976E-05 -2.10259951E-02 -4.58292884E-05
 -3.22159481E-05  2.25846374E-05  1.56499057E-03  1.48016015E-05  1.03533248E-05
 -7.08589372E-06  7.54411119E-03  7.55054898E-03  7.55181005E-03 -1.04781824E-05
  6.78502930E-06  4.83189540E-06  2.45985154E-04  6.72384693E-06 -3.98329212E-06
  8.09088943E-07 -6.66473110E-07  3.63893767E-05  1.61716158E-05 -5.11205628E-06
  3.59498897E-06 -1.01000914E-04  6.42418911E-05  8.09501263E-06 -2.02411511E-06
 -2.67596600E-05  5.65802097E-06  2.12012602E-06 -1.26647962E-06  3.09224202E-07
 -1.16190830E-06  4.17472046E-04  9.19827559E-06 -6.53551888E-07 -4.10284986E-06
 -8.19699344E-07  3.30687577E-05  1.00446026E-06  1.74850009E-05  4.34418572E-06
 -1.01433561E-04  3.00060565E-05  5.76949094E-05 -1.26725299E-06  1.83008428E-06
 -2.14128839E-05  3.07484000E-06 -1.31684471E-05 -1.27297345E-06  4.99320554E-08
 -2.66158527E-06  2.08007763E-09 -3.48374113E-06 -3.89300706E-06 -1.29203227E-06
  2.00432363E-05 -7.17371075E-07 -1.31604671E-06  1.05723545E-05  1.47375498E-03
 -2.69125818E-05  2.11807141E-05  5.21384568E-04  1.83704750E-06  4.40652472E-06
 -6.30971137E-05  8.59926582E-07 -3.18057054E-06  1.85134847E-06 -1.32003732E-05
  5.30395752E-06  2.30007551E-05  4.90724118E-05  1.04128753E-05 -4.68073149E-07
  2.18503443E-04  8.94633931E-03  1.43557480E-04 -5.42799838E-05  5.21833294E-03
  1.00550893E-05  9.97688600E-06  2.21685726E-04 -2.20215679E-07  6.76028097E-06
 -5.21024284E-06  1.04678854E-03 -1.18294715E-04 -1.83854138E-05 -4.02839396E-06
 -3.56368100E-04  8.75752059E-04  4.93731614E-04  3.86067426E-05  1.23773008E-02
 -2.79933120E-05 -2.70668644E-05 -5.61354269E-04  7.70106384E-07 -2.56725173E-05
  9.73457874E-08  9.93421018E-01  4.90330156E-02  1.76137809E-05  1.06424352E-06
  3.85455739E-04 -2.52908233E-02  1.82213122E-04  5.09720305E-05  4.01183114E-03
 -8.35245220E-03 -8.35176940E-03 -8.28381201E-03 -3.06674032E-06  6.13172879E-06
 -2.88535448E-07 -6.14196308E-06  1.91189823E-06 -3.30192770E-05 -2.33086151E-05
  1.63391906E-05  1.05943533E-04  3.21802908E-04  2.26379859E-04 -1.68890972E-04
  2.42887670E-03  1.13315412E-03  7.90531725E-04 -7.30848411E-04 -8.31861810E-06
 -2.35754505E-05 -9.27907800E-05  2.65565443E-05 -9.04613729E-05 -6.11096279E-05
 -6.52945686E-06  5.38188087E-06  3.36431552E-05 -1.51411560E-05  1.29539007E-05
  1.32967620E-04 -3.52045047E-04  1.61051251E-04 -1.43136583E-04  2.45859524E-03
 -1.29691871E-03  6.01393608E-04 -6.59354568E-04 -1.64250846E-05 -3.71942345E-05
 -1.06697577E-04 -9.23754315E-06  8.22147702E-05 -4.11220323E-05 -6.38110594E-06
  3.74252308E-06 -2.25270416E-06  3.78623772E-05  1.40709819E-05  1.23223662E-04
  2.60081963E-05 -3.86716257E-04 -1.52203188E-04  2.44396609E-03  1.06887250E-04
 -1.40286342E-03 -6.93711379E-04 -4.14943641E-05 -7.86332300E-06 -1.00941955E-04
  1.15188476E-06 -1.17284985E-05  9.76611764E-05 -1.82309468E-05 -9.66245590E-06
 -1.61063872E-05 -3.77306563E-06  2.41278975E-01  1.21732507E-02  2.15790746E-06
 -7.06018141E-09 -7.39144080E-04 -3.81237919E-03  5.44199391E-05 -6.90392574E-06
  4.36843157E-04 -2.36007438E-03 -2.36181910E-03 -3.18306617E-03 -2.94352529E-06
  1.67925466E-05 -1.68604468E-06 -8.93272271E-05  9.77001890E-04  9.60196711E-01
  4.70680147E-02  2.92825405E-05 -9.92973176E-06  1.50162013E-04 -1.16041977E-02
 -1.83855792E-04  2.43742735E-05 -3.82109523E-03 -9.78338678E-03 -9.78397535E-03
 -8.05030085E-03 -1.47589361E-08  3.97582088E-05 -3.89977994E-06  7.01618797E-02
  2.41021597E-03  3.07477475E-05 -1.47493489E-06  8.36493283E-04  7.07671947E-03
 -9.60823509E-05  7.83409389E-06 -3.70454180E-03 -1.00030270E-03 -9.99887204E-04
 -8.36362742E-04  4.78450190E-08 -4.62262216E-06  1.03088992E-06 -7.32952871E-05