CCl3                                                                    
SP        RB3LYP                                                      6-31G(d)            
Number of atoms                            I                5
Info1-9                                    I   N=           9
          14          14           0           0           0         110
           1          18        -502
Full Title                                 C   N=           1
CCl3        
Route                                      C   N=           2
# nosymm b3lyp/6-31G*   
Charge                                     I                0
Multiplicity                               I                1
Number of electrons                        I               58
Number of alpha electrons                  I               29
Number of beta electrons                   I               29
Number of basis functions                  I               74
Number of independent functions            I               74
Number of point charges in /Mol/           I                0
Number of translation vectors              I                0
Atomic numbers                             I   N=           5
           1           6          17          17          17
Nuclear charges                            R   N=           5
  1.00000000E+00  6.00000000E+00  1.70000000E+01  1.70000000E+01  1.70000000E+01
Current cartesian coordinates              R   N=          15
  0.00000000E+00  0.00000000E+00  0.00000000E+00  0.00000000E+00  0.00000000E+00
  2.04375770E+00 -1.43908314E+00 -2.85479036E+00  3.06337833E+00 -1.75311782E+00
  2.67369790E+00  3.06315156E+00  3.19174742E+00  1.81413708E-01  3.06341612E+00
Number of symbols in /Mol/                 I                0
Force Field                                I                0
Atom Types                                 C   N=           5
                                                            
Int Atom Types                             I   N=           5
           0           0           0           0           0
MM charges                                 R   N=           5
  0.00000000E+00  0.00000000E+00  0.00000000E+00  0.00000000E+00  0.00000000E+00
Integer atomic weights                     I   N=           5
           1          12          35          35          35
Real atomic weights                        R   N=           5
  1.00782504E+00  1.20000000E+01  3.49688527E+01  3.49688527E+01  3.49688527E+01
Atom fragment info                         I   N=           5
           0           0           0           0           0
Atom residue num                           I   N=           5
           0           0           0           0           0
Nuclear spins                              I   N=           5
           1           0           3           3           3
Nuclear ZEff                               R   N=           5
 -1.00000000E+00 -3.60000000E+00 -1.42400000E+01 -1.42400000E+01 -1.42400000E+01
Nuclear ZNuc                               R   N=           5
  1.00000000E+00  6.00000000E+00  1.70000000E+01  1.70000000E+01  1.70000000E+01
Nuclear QMom                               R   N=           5
  0.00000000E+00  0.00000000E+00 -8.16500000E+00 -8.16500000E+00 -8.16500000E+00
Nuclear GFac                               R   N=           5
  2.79284600E+00  0.00000000E+00  8.21874000E-01  8.21874000E-01  8.21874000E-01
MicOpt                                     I   N=           5
          -1          -1          -1          -1          -1
Number of residues                         I                0
Number of secondary structures             I                0
Number of contracted shells                I               21
Number of primitive shells                 I               66
Pure/Cartesian d shells                    I                1
Pure/Cartesian f shells                    I                0
Highest angular momentum                   I                2
Largest degree of contraction              I                6
Shell types                                I   N=          21
           0           0           0          -1          -1           2
           0          -1          -1          -1           2           0
          -1          -1          -1           2           0          -1
          -1          -1           2
Number of primitives per shell             I   N=          21
           3           1           6           3           1           1
           6           6           3           1           1           6
           6           3           1           1           6           6
           3           1           1
Shell to atom map                          I   N=          21
           1           1           2           2           2           2
           3           3           3           3           3           4
           4           4           4           4           5           5
           5           5           5
Primitive exponents                        R   N=          66
  1.87311370E+01  2.82539436E+00  6.40121692E-01  1.61277759E-01  3.04752488E+03
  4.57369518E+02  1.03948685E+02  2.92101553E+01  9.28666296E+00  3.16392696E+00
  7.86827235E+00  1.88128854E+00  5.44249258E-01  1.68714478E-01  8.00000000E-01
  2.51801000E+04  3.78035000E+03  8.60474000E+02  2.42145000E+02  7.73349000E+01
  2.62470000E+01  4.91765000E+02  1.16984000E+02  3.74153000E+01  1.37834000E+01
  5.45215000E+00  2.22588000E+00  3.18649000E+00  1.14427000E+00  4.20377000E-01
  1.42657000E-01  7.50000000E-01  2.51801000E+04  3.78035000E+03  8.60474000E+02
  2.42145000E+02  7.73349000E+01  2.62470000E+01  4.91765000E+02  1.16984000E+02
  3.74153000E+01  1.37834000E+01  5.45215000E+00  2.22588000E+00  3.18649000E+00
  1.14427000E+00  4.20377000E-01  1.42657000E-01  7.50000000E-01  2.51801000E+04
  3.78035000E+03  8.60474000E+02  2.42145000E+02  7.73349000E+01  2.62470000E+01
  4.91765000E+02  1.16984000E+02  3.74153000E+01  1.37834000E+01  5.45215000E+00
  2.22588000E+00  3.18649000E+00  1.14427000E+00  4.20377000E-01  1.42657000E-01
  7.50000000E-01
Contraction coefficients                   R   N=          66
  3.34946043E-02  2.34726953E-01  8.13757326E-01  1.00000000E+00  1.83473713E-03
  1.40373228E-02  6.88426223E-02  2.32184443E-01  4.67941348E-01  3.62311985E-01
 -1.19332420E-01 -1.60854152E-01  1.14345644E+00  1.00000000E+00  1.00000000E+00
  1.83295985E-03  1.40341988E-02  6.90973943E-02  2.37451980E-01  4.83033960E-01
  3.39855972E-01 -2.29739142E-03 -3.07137189E-02 -1.12528069E-01  4.50163278E-02
  5.89353363E-01  4.65206287E-01 -2.51828028E-01  6.15892514E-02  1.06018433E+00
  1.00000000E+00  1.00000000E+00  1.83295985E-03  1.40341988E-02  6.90973943E-02
  2.37451980E-01  4.83033960E-01  3.39855972E-01 -2.29739142E-03 -3.07137189E-02
 -1.12528069E-01  4.50163278E-02  5.89353363E-01  4.65206287E-01 -2.51828028E-01
  6.15892514E-02  1.06018433E+00  1.00000000E+00  1.00000000E+00  1.83295985E-03
  1.40341988E-02  6.90973943E-02  2.37451980E-01  4.83033960E-01  3.39855972E-01
 -2.29739142E-03 -3.07137189E-02 -1.12528069E-01  4.50163278E-02  5.89353363E-01
  4.65206287E-01 -2.51828028E-01  6.15892514E-02  1.06018433E+00  1.00000000E+00
  1.00000000E+00
P(S=P) Contraction coefficients            R   N=          66
  0.00000000E+00  0.00000000E+00  0.00000000E+00  0.00000000E+00  0.00000000E+00
  0.00000000E+00  0.00000000E+00  0.00000000E+00  0.00000000E+00  0.00000000E+00
  6.89990666E-02  3.16423961E-01  7.44308291E-01  1.00000000E+00  0.00000000E+00
  0.00000000E+00  0.00000000E+00  0.00000000E+00  0.00000000E+00  0.00000000E+00
  0.00000000E+00  3.98940088E-03  3.03177067E-02  1.29880029E-01  3.27951072E-01
  4.53527100E-01  2.52154056E-01 -1.42993147E-02  3.23572333E-01  7.43507765E-01
  1.00000000E+00  0.00000000E+00  0.00000000E+00  0.00000000E+00  0.00000000E+00
  0.00000000E+00  0.00000000E+00  0.00000000E+00  3.98940088E-03  3.03177067E-02
  1.29880029E-01  3.27951072E-01  4.53527100E-01  2.52154056E-01 -1.42993147E-02
  3.23572333E-01  7.43507765E-01  1.00000000E+00  0.00000000E+00  0.00000000E+00
  0.00000000E+00  0.00000000E+00  0.00000000E+00  0.00000000E+00  0.00000000E+00
  3.98940088E-03  3.03177067E-02  1.29880029E-01  3.27951072E-01  4.53527100E-01
  2.52154056E-01 -1.42993147E-02  3.23572333E-01  7.43507765E-01  1.00000000E+00
  0.00000000E+00
Coordinates of each shell                  R   N=          63
  0.00000000E+00  0.00000000E+00  0.00000000E+00  0.00000000E+00  0.00000000E+00
  0.00000000E+00  0.00000000E+00  0.00000000E+00  2.04375770E+00  0.00000000E+00
  0.00000000E+00  2.04375770E+00  0.00000000E+00  0.00000000E+00  2.04375770E+00
  0.00000000E+00  0.00000000E+00  2.04375770E+00 -1.43908314E+00 -2.85479036E+00
  3.06337833E+00 -1.43908314E+00 -2.85479036E+00  3.06337833E+00 -1.43908314E+00
 -2.85479036E+00  3.06337833E+00 -1.43908314E+00 -2.85479036E+00  3.06337833E+00
 -1.43908314E+00 -2.85479036E+00  3.06337833E+00 -1.75311782E+00  2.67369790E+00
  3.06315156E+00 -1.75311782E+00  2.67369790E+00  3.06315156E+00 -1.75311782E+00
  2.67369790E+00  3.06315156E+00 -1.75311782E+00  2.67369790E+00  3.06315156E+00
 -1.75311782E+00  2.67369790E+00  3.06315156E+00  3.19174742E+00  1.81413708E-01
  3.06341612E+00  3.19174742E+00  1.81413708E-01  3.06341612E+00  3.19174742E+00
  1.81413708E-01  3.06341612E+00  3.19174742E+00  1.81413708E-01  3.06341612E+00
  3.19174742E+00  1.81413708E-01  3.06341612E+00
Num ILSW                                   I              100
ILSW                                       I   N=         100
           0           1           0           0           2           0
           0           0           0           0         402          -1
           5           0           0           0           0           0
           0           0           1           0           0           0
           1           1           0           0           0           0
           0           0      100000           0          -1           0
           0           0           0           0           0           0
           0           0           0           1           0           0
           0 -2000000000           1           0           0           0
           0           0           4          52           0           0
           0           0           5           0           0           0
           0           0           0           0           0           1
           0           0           0           0           0           0
           0           0           0           0           0           0
           0           0           0           0           0           0
           0           0           0           0           0           0
           0           0           0           0
Num RLSW                                   I               52
RLSW                                       R   N=          52
  8.00000000E-01  7.20000000E-01  1.00000000E+00  8.10000000E-01  2.00000000E-01
  0.00000000E+00  0.00000000E+00  1.00000000E+00  0.00000000E+00  0.00000000E+00
  0.00000000E+00  0.00000000E+00  1.00000000E+00  0.00000000E+00  0.00000000E+00
  0.00000000E+00  0.00000000E+00  1.00000000E+00  0.00000000E+00  0.00000000E+00
  0.00000000E+00  0.00000000E+00  1.00000000E+00  0.00000000E+00  0.00000000E+00
  0.00000000E+00  0.00000000E+00  1.00000000E+00  0.00000000E+00  0.00000000E+00
  0.00000000E+00  0.00000000E+00  1.00000000E+00  0.00000000E+00  0.00000000E+00
  0.00000000E+00  0.00000000E+00  0.00000000E+00  1.00000000E+00  1.00000000E+00
  0.00000000E+00  1.00000000E+00  0.00000000E+00  0.00000000E+00  0.00000000E+00
  0.00000000E+00  0.00000000E+00  0.00000000E+00  0.00000000E+00  0.00000000E+00
  0.00000000E+00  0.00000000E+00
MxBond                                     I                4
NBond                                      I   N=           5
           1           4           1           1           1
IBond                                      I   N=          20
           2           0           0           0           1           3
           4           5           2           0           0           0
           2           0           0           0           2           0
           0           0
RBond                                      R   N=          20
  1.00000000E+00  0.00000000E+00  0.00000000E+00  0.00000000E+00  1.00000000E+00
  1.00000000E+00  1.00000000E+00  1.00000000E+00  1.00000000E+00  0.00000000E+00
  0.00000000E+00  0.00000000E+00  1.00000000E+00  0.00000000E+00  0.00000000E+00
  0.00000000E+00  1.00000000E+00  0.00000000E+00  0.00000000E+00  0.00000000E+00
Virial Ratio                               R      2.003166655897730E+00
SCF Energy                                 R     -1.419278876764613E+03
Total Energy                               R     -1.419278876764613E+03
RMS Density                                R      3.256974991520376E-09
Job Status                                 I                1
Nuclear derivative order                   I                0
External E-field                           R   N=          35
  0.00000000E+00  0.00000000E+00  0.00000000E+00  0.00000000E+00  0.00000000E+00
  0.00000000E+00  0.00000000E+00  0.00000000E+00  0.00000000E+00  0.00000000E+00
  0.00000000E+00  0.00000000E+00  0.00000000E+00  0.00000000E+00  0.00000000E+00
  0.00000000E+00  0.00000000E+00  0.00000000E+00  0.00000000E+00  0.00000000E+00
  0.00000000E+00  0.00000000E+00  0.00000000E+00  0.00000000E+00  0.00000000E+00
  0.00000000E+00  0.00000000E+00  0.00000000E+00  0.00000000E+00  0.00000000E+00
  0.00000000E+00  0.00000000E+00  0.00000000E+00  0.00000000E+00  0.00000000E+00
IOpCl                                      I                0
IROHF                                      I                0
Alpha Orbital Energies                     R   N=          74
 -1.01574147E+02 -1.01574139E+02 -1.01574129E+02 -1.03746480E+01 -9.49136878E+00
 -9.49135917E+00 -9.49134180E+00 -7.25600139E+00 -7.25597442E+00 -7.25596339E+00
 -7.24501514E+00 -7.24500584E+00 -7.24499496E+00 -7.24488477E+00 -7.24487621E+00
 -7.24486434E+00 -9.53972181E-01 -8.49230471E-01 -8.49210885E-01 -6.61336404E-01
 -5.18259875E-01 -4.83170364E-01 -4.83160045E-01 -3.60094732E-01 -3.60092322E-01
 -3.33060040E-01 -3.33051745E-01 -3.30715389E-01 -3.14919071E-01 -4.42300243E-02
  7.48702232E-03  7.51374496E-03  8.23804306E-02  2.89674016E-01  3.57971055E-01
  3.57973225E-01  3.96479446E-01  3.96483003E-01  4.05824489E-01  4.24069587E-01
  4.46417983E-01  4.46421853E-01  4.84304252E-01  4.84317816E-01  4.96959355E-01
  5.01951123E-01  5.95706739E-01  5.95710878E-01  7.55739948E-01  7.55753594E-01
  7.85585745E-01  8.41137314E-01  8.48583152E-01  8.48592790E-01  8.54461162E-01
  8.54473821E-01  8.64228470E-01  8.81226154E-01  1.00412424E+00  1.02766233E+00
  1.02768902E+00  1.05580035E+00  1.05580510E+00  1.18711754E+00  1.34902003E+00
  1.71220370E+00  1.71220807E+00  2.08572633E+00  2.08577349E+00  2.14190101E+00
  3.95178565E+00  4.25082714E+00  4.25083091E+00  4.29569622E+00
Alpha MO coefficients                      R   N=        5476
 -2.25037784E-05 -6.97350023E-05 -1.23662515E-05  3.23655768E-05  7.30621419E-05
  7.42960154E-06  1.25694271E-05  2.23125741E-04 -4.10115646E-05 -4.16668567E-06
  1.19470260E-05 -6.41093012E-05 -1.53059955E-05 -2.79543858E-05 -1.94436111E-06
 -1.44202814E-05 -1.46884320E-06 -9.24396124E-02 -1.40564669E-03  5.82952041E-07
 -2.17455320E-07  2.38377776E-07  1.99420438E-03 -8.80603882E-06 -1.58621307E-05
  6.12448605E-06 -2.62214422E-04 -5.58568469E-05 -4.52828876E-05  3.23297150E-07
 -7.20335058E-04 -7.14634512E-04 -7.02022788E-04 -1.71965781E-05  1.05049277E-06
  8.82735731E-07 -3.80060712E-02 -5.76843348E-04  1.96560491E-06 -1.81013382E-06
 -5.63839150E-07  8.42120646E-04 -1.13653235E-05  1.59442575E-05  6.27968866E-06
 -1.68811082E-04 -5.89906842E-05  3.33287028E-05  1.78922932E-07 -3.10473894E-04
 -2.96901927E-04 -2.88945020E-04  1.59738984E-05  1.20666434E-06 -8.03963000E-07
  9.90970019E-01  1.50903120E-02 -5.02076578E-05 -2.82112273E-06 -1.57287974E-05
 -2.09361352E-02  4.66493463E-05  2.61229075E-06  9.23386371E-06  1.59675302E-03
 -4.09171581E-05 -3.88724001E-06 -2.47932150E-06  7.51403089E-03  7.52290356E-03
  7.51961293E-03  1.01479918E-07 -2.72095270E-06 -1.25969385E-07 -2.60673057E-05
 -8.07833787E-05 -1.43273557E-05  3.74727146E-05 -2.16482721E-05 -6.56777537E-05
  1.45620925E-05  2.58474342E-04  1.21425704E-05  3.68537050E-05  1.38434994E-05
 -3.51790510E-05 -5.67887331E-05 -3.23794771E-05 -2.34696982E-05  4.27209359E-06
  1.29492094E-05  9.88697539E-01  1.50560015E-02  2.29905292E-05  4.53790990E-05
 -1.58724451E-05 -2.08820502E-02 -2.25791380E-05 -4.45289228E-05  1.02404524E-05
  1.57642742E-03  1.00016633E-05  3.06746973E-05 -2.45783931E-06  7.50091156E-03
  7.49678006E-03  7.50228138E-03 -6.80043113E-06  1.40442290E-06  2.58760403E-06
 -8.09025379E-02 -1.22969299E-03  2.56679926E-07 -1.37792197E-06 -1.09980675E-07
  1.75600198E-03 -1.13649682E-05  1.84882275E-05  7.16887089E-06 -2.58825823E-04
 -1.86731885E-05  7.55088012E-05  3.00877311E-07 -6.18495503E-04 -6.45750506E-04
 -6.14557627E-04  7.96810019E-06  4.25375182E-07 -1.50926602E-06  8.91262056E-02
  1.35915910E-03 -9.12250842E-06 -1.16265542E-06 -2.61558381E-06 -1.84265365E-03
  2.60943021E-05  2.23690285E-06  7.65846245E-06  3.29071821E-05  5.48241072E-05
  3.38256318E-05 -1.33880468E-07  6.50959115E-04  6.69873413E-04  6.75735862E-04
 -1.47146127E-05 -1.69090540E-06 -6.59463608E-07 -2.91340968E-05 -9.02933995E-05
 -1.60165481E-05  4.18445780E-05 -3.70559013E-05  5.30220290E-05  1.62737551E-05
  2.88891943E-04  2.07748815E-05 -2.97275163E-05  1.54751908E-05 -4.22128388E-05
 -6.05286796E-05 -3.61801689E-05  2.24771536E-05  7.29792258E-06 -1.04403712E-05
  7.70948527E-02  1.17621990E-03  3.63708353E-06  8.48010584E-06 -2.59150186E-06
 -1.58286370E-03 -1.23074028E-05 -2.58989492E-05  8.49474796E-06 -1.85347499E-06
 -5.26064750E-06 -7.07338765E-05 -9.05063391E-08  5.82464263E-04  5.51415267E-04
  5.84359012E-04 -4.31265813E-06  4.10613076E-07  1.92082554E-06  9.91978751E-01
  1.51062098E-02  2.82868516E-05 -4.31749131E-05 -1.60694135E-05 -2.09463363E-02
 -2.89461669E-05  4.41883007E-05  1.11197297E-05  1.56791648E-03  1.42013372E-05
 -1.99956994E-05 -2.45028373E-06  7.52498633E-03  7.51854548E-03  7.52710510E-03
  7.55445844E-06  1.70780903E-06 -2.63515314E-06  4.52378593E-02  6.91166774E-04
 -7.75153946E-06  1.10607180E-07 -2.12208076E-06 -9.08613988E-04  2.78161397E-05
  9.34951737E-07  8.40367023E-06 -5.65186906E-05  7.00478206E-05 -2.22896286E-05
 -8.14835486E-09  3.11316321E-04  3.38220493E-04  3.42608926E-04  9.75067956E-06
 -1.88060930E-06  3.75423637E-07  4.18941949E-05  2.23425859E-03  9.93165377E-01
  4.88129190E-02  3.43196826E-08 -7.30751514E-09  6.83978355E-04 -1.58941711E-02
  5.73990148E-08 -7.12296061E-08 -8.10742036E-04 -8.83836862E-03 -8.83843540E-03
 -8.63021192E-03  3.78980859E-08  2.47114210E-08 -1.45053116E-08 -8.77142717E-06
 -1.25902210E-05 -2.04799044E-06 -4.06887915E-06 -1.61931437E-06  1.48722622E-04
  8.77313581E-05  1.74072235E-04 -4.23910224E-05  2.57830504E-03  7.03469822E-04
  1.39545971E-03 -4.04091384E-04 -1.46503580E-04 -1.54837622E-04 -1.53129291E-04
 -6.50869792E-06  2.19113387E-05  4.34720954E-05 -8.76781180E-06 -1.26053084E-05
 -2.50726255E-06  3.82590554E-06 -1.61206596E-06  1.48645074E-04  1.06925460E-04
 -1.63085232E-04 -4.24107441E-05  2.57807771E-03  8.56880891E-04 -1.30680578E-03
 -4.03917959E-04 -1.47832208E-04 -1.53377589E-04 -1.53103747E-04  7.36155678E-06
  2.66703878E-05 -4.06767414E-05 -8.77379253E-06 -1.25802395E-05  4.53585934E-06
  2.56115002E-07 -1.62310738E-06  1.48774175E-04 -1.94567115E-04 -1.10497791E-05
 -4.23782305E-05  2.57846935E-03 -1.56029601E-03 -8.86910684E-05 -4.04133028E-04
 -1.57714503E-04 -1.43710304E-04 -1.53147009E-04 -9.26463062E-07 -4.86322841E-05
 -2.76257469E-06 -3.28323558E-05  2.95859153E-04 -3.63837666E-06  2.77528319E-04
 -5.87377802E-04 -1.48808726E-04 -4.49652454E-05 -3.22799829E-04  1.34602560E-03
  3.40995565E-04 -6.57015242E-05 -5.93832999E-04  3.02205577E-04  1.32777258E-05
  4.03628372E-05 -3.60986303E-04 -9.14622047E-05  1.12974714E-01 -4.05795614E-01
 -9.22684119E-04 -1.89530915E-03  7.43625547E-04 -2.97250799E-02 -4.21178766E-04
 -4.06314940E-04  6.60712770E-05  6.72067443E-03  1.25019553E-03  1.16564985E-03
 -1.56088458E-04  6.53500903E-03  6.28387787E-03  6.37364100E-03  1.07075884E-05
  6.73939745E-05  5.64118712E-05  3.82357807E-02 -1.37369519E-01 -3.60104964E-04
  6.16023858E-04  2.55008711E-04 -1.01407358E-02 -3.13690981E-04  3.72925385E-05
  3.10384307E-06  2.69130224E-03  1.06684051E-03 -2.75996097E-04 -4.33152415E-05
  2.27413859E-03  2.02951471E-03  2.09465891E-03 -6.11797756E-05  4.96949186E-05
  3.63503313E-06 -2.58455494E-01  9.28202020E-01 -4.81842438E-03 -2.66505342E-04
 -1.68438563E-03  6.76032565E-02 -1.17842453E-03 -1.15718077E-04 -2.46834271E-04
 -1.33039679E-02  2.29948267E-03  2.79953446E-04  4.04175899E-04 -1.44822836E-02
 -1.50170036E-02 -1.48916321E-02  4.04662961E-06  1.99269656E-04  2.01065965E-05
 -5.07316068E-05  4.56952936E-04 -5.60452137E-06  4.28722927E-04 -9.80680402E-05
  5.76305693E-04 -6.94350075E-05 -4.98718399E-04  2.24807815E-04 -1.32095253E-03
 -1.01542924E-04 -2.24523739E-04 -2.25926504E-04  2.05202776E-05 -5.00779334E-04
 -6.02537997E-05  3.54187799E-04 -2.31398885E-01  8.31003218E-01  1.96498793E-03
  3.84850411E-03 -1.50457957E-03  6.04472357E-02  3.38721740E-04  9.97548578E-04
 -2.39858352E-04 -1.15021750E-02 -4.10155107E-04 -1.81084440E-03  3.71134970E-04
 -1.33125983E-02 -1.31327754E-02 -1.33939947E-02  2.97119598E-04 -5.84344996E-05
 -1.74535225E-04  1.45385119E-01 -5.22222680E-01 -1.49963093E-03  2.25973578E-03
  9.57977444E-04 -3.82840305E-02 -3.10586388E-04  6.53924476E-04  7.74834434E-05
  8.81114923E-03  9.36763522E-04 -1.98075930E-03 -1.97066122E-04  8.22245461E-03
  8.26039600E-03  8.17777352E-03  1.07369962E-04  4.13953594E-05 -9.55755160E-05
 -7.96430914E-02  2.85969810E-01 -1.48388665E-03 -1.21588735E-04 -5.12662417E-04
  2.06816404E-02 -3.47594934E-04  2.26018227E-04 -1.12037408E-04 -3.32064669E-03
  2.44265000E-04 -7.38771872E-04  1.42248395E-04 -4.46960842E-03 -4.68573730E-03
 -4.70562246E-03  1.71353935E-04  6.98517829E-05 -4.02812997E-05 -1.38364456E-04
  1.24669282E-03 -1.51807878E-05  1.16966585E-03  1.75257925E-04 -1.75897466E-04
 -1.89238903E-04 -1.36139769E-03 -4.01764241E-04  4.03273934E-04 -2.76981213E-04
 -5.08242421E-04 -7.20322697E-04  5.61035084E-05  1.73982081E-04  1.07740259E-04
 -1.08104380E-04 -1.21322872E-01  4.35543086E-01  1.00802094E-03  2.03307368E-03
 -7.71299438E-04  3.12788440E-02  2.97536452E-04  3.69014021E-04 -2.24720910E-04
 -3.88637555E-03 -6.52364799E-05  5.48243261E-04  2.43108436E-04 -7.21668930E-03
 -6.82795670E-03 -7.34391433E-03  1.96796993E-04 -6.61919516E-05 -9.14990587E-05
 -2.41721253E-01  8.67955835E-01  2.47381637E-03 -3.77859760E-03 -1.55777893E-03
  6.28276342E-02  5.80242336E-04 -8.46331051E-04 -3.26040698E-04 -1.03773129E-02
 -4.97803943E-04  6.40925110E-04  4.24655603E-04 -1.40355001E-02 -1.37265526E-02
 -1.42370298E-02 -3.76508391E-04 -1.14179145E-04  1.67176189E-04 -8.88014853E-02
  3.18741998E-01 -1.66022067E-03 -8.24705506E-05 -5.58767123E-04  2.27570685E-02
 -3.06553254E-04 -9.59624741E-05 -1.97347818E-04 -2.13312392E-03 -8.15326431E-04
  1.94200870E-04  1.94077346E-04 -4.94279106E-03 -5.39658608E-03 -5.48198664E-03
 -2.03362529E-05  8.59888640E-05  1.90216430E-05 -1.25116156E-04 -1.57705022E-03
 -2.49870144E-04 -3.58416376E-03  2.05813649E-04 -8.34751580E-05  3.16134190E-04
  5.92594759E-03  3.94789254E-04 -1.59991984E-04  1.55214828E-03  1.61591458E-03
  1.07170131E-03 -3.12696307E-04  1.95066878E-04  2.36052371E-04 -9.57567406E-05
 -9.34090742E-04  3.51599088E-03 -2.33109798E-01 -4.62127505E-01  1.56638260E-01
  2.31676876E-04 -7.24673526E-03 -1.43627993E-02  4.83472930E-03 -2.01608265E-03
  1.13194183E-03  2.77437332E-03 -1.36627082E-03 -7.42416763E-05 -6.53574587E-04
  2.46892732E-04 -5.95444730E-04  1.28546780E-04  2.32722983E-04 -6.92607190E-04
  2.65061303E-03 -2.10719007E-01  3.21225458E-01  1.16161336E-01  2.75386644E-04
 -6.57491939E-03  1.00213706E-02  3.60795867E-03 -2.15451801E-03  8.50737551E-04
 -1.54530254E-03 -1.09373136E-03 -1.12739643E-04 -4.26504786E-04  2.87831369E-04
  5.38800490E-04  1.01349221E-04 -1.44123278E-04 -1.25525038E-03  4.66689167E-03
  6.93926624E-01  3.94996532E-02  2.10436543E-01  1.73520311E-04  2.15080863E-02
  1.22495923E-03  6.46522351E-03 -1.83196664E-03 -4.61884018E-03 -1.60184677E-04
 -1.72852586E-03 -1.19611501E-03  2.17482308E-04  1.92469944E-04 -1.29898905E-04
 -3.83860266E-04 -2.61291815E-05  2.01938362E-05  2.54786174E-04  4.03821927E-05
  5.78846384E-04  8.44501762E-04  4.16832484E-04 -5.09817405E-05 -9.57047202E-04
  1.62163671E-03  8.00298983E-04 -2.50504691E-04  1.08563951E-03 -1.51952393E-03
  5.05711461E-05 -4.46029725E-04  9.69113292E-04  4.78345466E-04  1.25992231E-03
 -4.54219437E-03  3.13233880E-01  6.22140931E-01 -2.11094427E-01  1.63746301E-04
  9.63850080E-03  1.91531724E-02 -6.41169292E-03 -3.11385520E-04 -3.30193999E-03
 -5.19523489E-03  1.47178115E-03  2.01860563E-05  9.63334350E-04  1.48128994E-04
  3.68751160E-04 -1.81328545E-04 -4.16823100E-04  3.23199669E-04 -1.18542336E-03
  9.75979762E-02 -1.49887230E-01 -5.41586838E-02 -6.11168952E-06  3.01010514E-03
 -4.63533673E-03 -1.65548273E-03  2.26556735E-04 -1.58707463E-03  5.85074630E-04
  4.14949982E-04 -2.25415223E-04  4.77512989E-04 -1.06617164E-05 -2.94441910E-05
 -2.30608425E-05  1.12508427E-04 -1.11783197E-03  3.97854631E-03  6.16563430E-01
  3.48188546E-02  1.87237402E-01 -2.67427357E-04  1.89264670E-02  1.06609802E-03
  5.66042465E-03  1.05406202E-03 -5.94028884E-03 -7.34734804E-04 -1.21057639E-03
 -8.59264651E-04 -1.39058209E-05 -2.54931330E-04  8.72372313E-05 -4.27442131E-04
 -7.56293498E-06 -2.21227717E-05 -2.78731361E-04 -4.41707148E-05 -6.32892462E-04
 -3.92139674E-04  8.53312976E-04  5.56874592E-05  1.04650641E-03 -7.53041623E-04
  1.63846893E-03  2.73614973E-04 -1.11995807E-04  5.86301998E-04 -5.53611318E-05
 -1.51224123E-03 -4.50027542E-04  9.79283848E-04  6.90536632E-04 -2.44477229E-03
  1.72087400E-01  3.40376186E-01 -1.15655697E-01  1.96077089E-04  5.28121517E-03
  1.04337693E-02 -3.48966729E-03 -8.47527531E-04 -1.01577243E-03 -3.77186526E-03
  7.24037428E-04  3.25548160E-04  2.13909659E-04  1.88580372E-04  3.89076849E-04
 -1.51297903E-04 -2.26088165E-04 -1.53366176E-03  5.52566431E-03 -4.65029368E-01
  7.09055915E-01  2.56905722E-01 -2.07594185E-04 -1.43137181E-02  2.18230553E-02
  7.80130051E-03  4.30797063E-04  3.98248163E-03 -6.34852545E-03 -1.78499680E-03
 -3.82452874E-04 -8.14630149E-04 -1.88329122E-04  7.09391111E-04  3.09007133E-04
 -4.59679760E-04  3.34491991E-04 -1.16888034E-03 -1.84289660E-01 -1.10111310E-02
 -5.60079060E-02  1.31459868E-04 -5.63419122E-03 -3.43165487E-04 -1.68195552E-03
 -6.42875568E-04  2.06380060E-03 -8.25763173E-04  3.22302610E-04  1.92704630E-04
  6.87972098E-05  1.28244492E-04  3.47518564E-04  1.35626599E-04  4.74509114E-05
 -3.06708139E-09  6.02433987E-07 -2.05712319E-09 -1.20983015E-08  5.15612523E-06
  5.06631013E-05 -3.44803946E-08  5.80493588E-08 -1.01833834E-04 -1.02068154E-03
  4.04508137E-07  3.77118750E-05 -3.77562089E-05  4.22669438E-08 -1.57352755E-04
 -1.81472822E-05 -1.80816257E-04  8.51193459E-06  8.24695857E-05  2.43000667E-01
 -1.25803448E-01 -1.09566462E-02  3.07379605E-04  7.12695549E-03 -3.69288205E-03
 -3.19855775E-04 -1.66622394E-03 -3.19963729E-03  6.27323094E-04  2.93434966E-04
  3.03864840E-05  1.14929235E-04  2.16106482E-04 -1.06511489E-04 -5.19118737E-06
  4.45842454E-05 -7.05242438E-06 -6.89232093E-05 -1.15982670E-01 -7.87682858E-02
  8.51678748E-03 -2.56258337E-04 -3.49315304E-03 -2.37312552E-03  2.49089222E-04
  1.38887287E-03  2.21947232E-03  5.76267175E-04 -2.39737648E-04  6.61981801E-05
 -1.87539311E-04 -1.80053611E-04 -1.15018601E-04 -1.81632924E-05  2.56989542E-05
 -1.43300856E-06 -1.36042528E-05 -5.40198092E-02  9.40500897E-01  2.05705507E-03
 -5.10308188E-05 -1.55376681E-03  2.70372617E-02  5.99492848E-05  2.76703217E-04
  3.08054824E-04 -7.98358133E-03 -5.09359542E-05  2.40909282E-05 -4.81001749E-05
 -3.58937661E-05 -2.82518492E-04  1.49635122E-05 -1.53712909E-04  5.92303742E-08
 -3.11298417E-06  2.50627575E-08  1.03517189E-07  5.05634752E-05 -5.42540992E-05
  1.67957452E-07 -4.68999183E-07 -1.01304656E-03  1.09037219E-03 -1.89085176E-06
  1.12382890E-04 -1.12087130E-04 -1.86327167E-07  1.98337925E-04 -1.79751547E-04
  1.93286180E-04 -4.61387814E-06 -4.46786322E-05  8.36618451E-01 -4.19793519E-01
  6.39256124E-03 -1.66560518E-04  2.39681600E-02 -1.20237232E-02  1.86146523E-04
  9.02704354E-04 -6.44475447E-03  3.78175289E-03 -1.61880961E-04  2.17976927E-04
 -2.96598531E-04 -1.17197805E-04  2.58082196E-04 -1.56310929E-04  5.64038670E-05
  1.30153693E-05  1.26332627E-04 -1.20455900E-01 -7.36107183E-02 -1.66881378E-02
  4.70657760E-04 -3.54785668E-03 -2.16331651E-03 -4.87536792E-04 -2.55135476E-03
  6.76148294E-04  2.05463001E-03  4.49777751E-04  1.96300562E-04  2.61493335E-05
  3.30860045E-04  5.15934461E-05  4.08428941E-05 -4.21870909E-05 -8.52362184E-06
 -8.14224401E-05  1.32374807E-02 -2.92424438E-01  1.23483090E-02 -3.04718405E-04
  3.64529492E-04 -8.20602613E-03  3.59389274E-04  1.65217994E-03 -9.50259636E-04
  1.40299601E-03 -3.02564609E-04 -5.48568070E-05 -8.87260789E-05 -2.14509877E-04
  3.25634531E-04  3.24258943E-05  7.50414072E-05  4.78197315E-08 -1.87835683E-06
  1.73921628E-08  6.56077407E-08  6.69444513E-05  3.78714277E-05  9.68033635E-08
 -3.16302670E-07 -1.32961221E-03 -7.54195291E-04 -1.08081004E-06  1.98649948E-04
 -1.98456045E-04 -1.08022319E-07 -8.25295669E-05 -2.36548337E-04 -1.34054493E-04
  1.14300178E-05  1.08580356E-04  1.54451329E-01 -8.31135737E-02 -1.70897164E-02
  4.07057658E-04  4.29504559E-03 -2.32347808E-03 -4.97542427E-04 -2.20759685E-03