CCtBu_new_1 0.0                                                         
SP        RB3LYP                                                      6-31G(d)            
Number of atoms                            I               19
Info1-9                                    I   N=           9
          28          28           0           0           0         110
           1          18        -502
Full Title                                 C   N=           2
CCtBu_new_1 0.0         
Route                                      C   N=           2
# nosymm b3lyp/6-31G*   
Charge                                     I                0
Multiplicity                               I                1
Number of electrons                        I               54
Number of alpha electrons                  I               27
Number of beta electrons                   I               27
Number of basis functions                  I              129
Number of independent functions            I              129
Number of point charges in /Mol/           I                0
Number of translation vectors              I                0
Atomic numbers                             I   N=          19
           6           1           6           6           6           6
           1           1           1           6           1           1
           1           6           1           1           1           1
           1
Nuclear charges                            R   N=          19
  6.00000000E+00  1.00000000E+00  6.00000000E+00  6.00000000E+00  6.00000000E+00
  6.00000000E+00  1.00000000E+00  1.00000000E+00  1.00000000E+00  6.00000000E+00
  1.00000000E+00  1.00000000E+00  1.00000000E+00  6.00000000E+00  1.00000000E+00
  1.00000000E+00  1.00000000E+00  1.00000000E+00  1.00000000E+00
Current cartesian coordinates              R   N=          57
  0.00000000E+00  0.00000000E+00  0.00000000E+00  3.01606469E-01  1.90861076E+00
 -7.50699297E-01  0.00000000E+00  0.00000000E+00  2.76364889E+00 -1.45395528E-04
  5.80712838E-05  5.05382687E+00 -7.98333699E-04 -1.69319461E-05  7.83714774E+00
  4.42271710E-01  2.71724252E+00  8.80849538E+00  2.26056643E+00  3.44967308E+00
  8.14424299E+00 -1.04890843E+00  3.98943274E+00  8.14379503E+00  4.45258611E-01
  2.73733201E+00  1.08815253E+01 -2.57602278E+00 -9.74682808E-01  8.80753051E+00
 -2.59580381E+00 -9.82028552E-01  1.08805580E+01 -4.11910216E+00  2.33890287E-01
  8.14259785E+00 -2.93211385E+00 -2.90218297E+00  8.14280020E+00  2.13043757E+00
 -1.74264923E+00  8.80886467E+00  1.85567230E+00 -3.68340609E+00  8.14410527E+00
  3.97805474E+00 -1.08735140E+00  8.14495555E+00  2.14560931E+00 -1.75574866E+00
  1.08818959E+01 -1.80370375E+00 -6.93141962E-01 -7.50678491E-01  1.50212005E+00
 -1.21550266E+00 -7.50665546E-01
Number of symbols in /Mol/                 I                0
Force Field                                I                0
Atom Types                                 C   N=          19
                                                            
                                                            
                                                            
                                                
Int Atom Types                             I   N=          19
           0           0           0           0           0           0
           0           0           0           0           0           0
           0           0           0           0           0           0
           0
MM charges                                 R   N=          19
  0.00000000E+00  0.00000000E+00  0.00000000E+00  0.00000000E+00  0.00000000E+00
  0.00000000E+00  0.00000000E+00  0.00000000E+00  0.00000000E+00  0.00000000E+00
  0.00000000E+00  0.00000000E+00  0.00000000E+00  0.00000000E+00  0.00000000E+00
  0.00000000E+00  0.00000000E+00  0.00000000E+00  0.00000000E+00
Integer atomic weights                     I   N=          19
          12           1          12          12          12          12
           1           1           1          12           1           1
           1          12           1           1           1           1
           1
Real atomic weights                        R   N=          19
  1.20000000E+01  1.00782504E+00  1.20000000E+01  1.20000000E+01  1.20000000E+01
  1.20000000E+01  1.00782504E+00  1.00782504E+00  1.00782504E+00  1.20000000E+01
  1.00782504E+00  1.00782504E+00  1.00782504E+00  1.20000000E+01  1.00782504E+00
  1.00782504E+00  1.00782504E+00  1.00782504E+00  1.00782504E+00
Atom fragment info                         I   N=          19
           0           0           0           0           0           0
           0           0           0           0           0           0
           0           0           0           0           0           0
           0
Atom residue num                           I   N=          19
           0           0           0           0           0           0
           0           0           0           0           0           0
           0           0           0           0           0           0
           0
Nuclear spins                              I   N=          19
           0           1           0           0           0           0
           1           1           1           0           1           1
           1           0           1           1           1           1
           1
Nuclear ZEff                               R   N=          19
 -3.60000000E+00 -1.00000000E+00 -3.60000000E+00 -3.60000000E+00 -3.60000000E+00
 -3.60000000E+00 -1.00000000E+00 -1.00000000E+00 -1.00000000E+00 -3.60000000E+00
 -1.00000000E+00 -1.00000000E+00 -1.00000000E+00 -3.60000000E+00 -1.00000000E+00
 -1.00000000E+00 -1.00000000E+00 -1.00000000E+00 -1.00000000E+00
Nuclear ZNuc                               R   N=          19
  6.00000000E+00  1.00000000E+00  6.00000000E+00  6.00000000E+00  6.00000000E+00
  6.00000000E+00  1.00000000E+00  1.00000000E+00  1.00000000E+00  6.00000000E+00
  1.00000000E+00  1.00000000E+00  1.00000000E+00  6.00000000E+00  1.00000000E+00
  1.00000000E+00  1.00000000E+00  1.00000000E+00  1.00000000E+00
Nuclear QMom                               R   N=          19
  0.00000000E+00  0.00000000E+00  0.00000000E+00  0.00000000E+00  0.00000000E+00
  0.00000000E+00  0.00000000E+00  0.00000000E+00  0.00000000E+00  0.00000000E+00
  0.00000000E+00  0.00000000E+00  0.00000000E+00  0.00000000E+00  0.00000000E+00
  0.00000000E+00  0.00000000E+00  0.00000000E+00  0.00000000E+00
Nuclear GFac                               R   N=          19
  0.00000000E+00  2.79284600E+00  0.00000000E+00  0.00000000E+00  0.00000000E+00
  0.00000000E+00  2.79284600E+00  2.79284600E+00  2.79284600E+00  0.00000000E+00
  2.79284600E+00  2.79284600E+00  2.79284600E+00  0.00000000E+00  2.79284600E+00
  2.79284600E+00  2.79284600E+00  2.79284600E+00  2.79284600E+00
MicOpt                                     I   N=          19
          -1          -1          -1          -1          -1          -1
          -1          -1          -1          -1          -1          -1
          -1          -1          -1          -1          -1          -1
          -1
Number of residues                         I                0
Number of secondary structures             I                0
Number of contracted shells                I               52
Number of primitive shells                 I              125
Pure/Cartesian d shells                    I                1
Pure/Cartesian f shells                    I                0
Highest angular momentum                   I                2
Largest degree of contraction              I                6
Shell types                                I   N=          52
           0          -1          -1           2           0           0
           0          -1          -1           2           0          -1
          -1           2           0          -1          -1           2
           0          -1          -1           2           0           0
           0           0           0           0           0          -1
          -1           2           0           0           0           0
           0           0           0          -1          -1           2
           0           0           0           0           0           0
           0           0           0           0
Number of primitives per shell             I   N=          52
           6           3           1           1           3           1
           6           3           1           1           6           3
           1           1           6           3           1           1
           6           3           1           1           3           1
           3           1           3           1           6           3
           1           1           3           1           3           1
           3           1           6           3           1           1
           3           1           3           1           3           1
           3           1           3           1
Shell to atom map                          I   N=          52
           1           1           1           1           2           2
           3           3           3           3           4           4
           4           4           5           5           5           5
           6           6           6           6           7           7
           8           8           9           9          10          10
          10          10          11          11          12          12
          13          13          14          14          14          14
          15          15          16          16          17          17
          18          18          19          19
Primitive exponents                        R   N=         125
  3.04752488E+03  4.57369518E+02  1.03948685E+02  2.92101553E+01  9.28666296E+00
  3.16392696E+00  7.86827235E+00  1.88128854E+00  5.44249258E-01  1.68714478E-01
  8.00000000E-01  1.87311370E+01  2.82539436E+00  6.40121692E-01  1.61277759E-01
  3.04752488E+03  4.57369518E+02  1.03948685E+02  2.92101553E+01  9.28666296E+00
  3.16392696E+00  7.86827235E+00  1.88128854E+00  5.44249258E-01  1.68714478E-01
  8.00000000E-01  3.04752488E+03  4.57369518E+02  1.03948685E+02  2.92101553E+01
  9.28666296E+00  3.16392696E+00  7.86827235E+00  1.88128854E+00  5.44249258E-01
  1.68714478E-01  8.00000000E-01  3.04752488E+03  4.57369518E+02  1.03948685E+02
  2.92101553E+01  9.28666296E+00  3.16392696E+00  7.86827235E+00  1.88128854E+00
  5.44249258E-01  1.68714478E-01  8.00000000E-01  3.04752488E+03  4.57369518E+02
  1.03948685E+02  2.92101553E+01  9.28666296E+00  3.16392696E+00  7.86827235E+00
  1.88128854E+00  5.44249258E-01  1.68714478E-01  8.00000000E-01  1.87311370E+01
  2.82539436E+00  6.40121692E-01  1.61277759E-01  1.87311370E+01  2.82539436E+00
  6.40121692E-01  1.61277759E-01  1.87311370E+01  2.82539436E+00  6.40121692E-01
  1.61277759E-01  3.04752488E+03  4.57369518E+02  1.03948685E+02  2.92101553E+01
  9.28666296E+00  3.16392696E+00  7.86827235E+00  1.88128854E+00  5.44249258E-01
  1.68714478E-01  8.00000000E-01  1.87311370E+01  2.82539436E+00  6.40121692E-01
  1.61277759E-01  1.87311370E+01  2.82539436E+00  6.40121692E-01  1.61277759E-01
  1.87311370E+01  2.82539436E+00  6.40121692E-01  1.61277759E-01  3.04752488E+03
  4.57369518E+02  1.03948685E+02  2.92101553E+01  9.28666296E+00  3.16392696E+00
  7.86827235E+00  1.88128854E+00  5.44249258E-01  1.68714478E-01  8.00000000E-01
  1.87311370E+01  2.82539436E+00  6.40121692E-01  1.61277759E-01  1.87311370E+01
  2.82539436E+00  6.40121692E-01  1.61277759E-01  1.87311370E+01  2.82539436E+00
  6.40121692E-01  1.61277759E-01  1.87311370E+01  2.82539436E+00  6.40121692E-01
  1.61277759E-01  1.87311370E+01  2.82539436E+00  6.40121692E-01  1.61277759E-01
Contraction coefficients                   R   N=         125
  1.83473713E-03  1.40373228E-02  6.88426223E-02  2.32184443E-01  4.67941348E-01
  3.62311985E-01 -1.19332420E-01 -1.60854152E-01  1.14345644E+00  1.00000000E+00
  1.00000000E+00  3.34946043E-02  2.34726953E-01  8.13757326E-01  1.00000000E+00
  1.83473713E-03  1.40373228E-02  6.88426223E-02  2.32184443E-01  4.67941348E-01
  3.62311985E-01 -1.19332420E-01 -1.60854152E-01  1.14345644E+00  1.00000000E+00
  1.00000000E+00  1.83473713E-03  1.40373228E-02  6.88426223E-02  2.32184443E-01
  4.67941348E-01  3.62311985E-01 -1.19332420E-01 -1.60854152E-01  1.14345644E+00
  1.00000000E+00  1.00000000E+00  1.83473713E-03  1.40373228E-02  6.88426223E-02
  2.32184443E-01  4.67941348E-01  3.62311985E-01 -1.19332420E-01 -1.60854152E-01
  1.14345644E+00  1.00000000E+00  1.00000000E+00  1.83473713E-03  1.40373228E-02
  6.88426223E-02  2.32184443E-01  4.67941348E-01  3.62311985E-01 -1.19332420E-01
 -1.60854152E-01  1.14345644E+00  1.00000000E+00  1.00000000E+00  3.34946043E-02
  2.34726953E-01  8.13757326E-01  1.00000000E+00  3.34946043E-02  2.34726953E-01
  8.13757326E-01  1.00000000E+00  3.34946043E-02  2.34726953E-01  8.13757326E-01
  1.00000000E+00  1.83473713E-03  1.40373228E-02  6.88426223E-02  2.32184443E-01
  4.67941348E-01  3.62311985E-01 -1.19332420E-01 -1.60854152E-01  1.14345644E+00
  1.00000000E+00  1.00000000E+00  3.34946043E-02  2.34726953E-01  8.13757326E-01
  1.00000000E+00  3.34946043E-02  2.34726953E-01  8.13757326E-01  1.00000000E+00
  3.34946043E-02  2.34726953E-01  8.13757326E-01  1.00000000E+00  1.83473713E-03
  1.40373228E-02  6.88426223E-02  2.32184443E-01  4.67941348E-01  3.62311985E-01
 -1.19332420E-01 -1.60854152E-01  1.14345644E+00  1.00000000E+00  1.00000000E+00
  3.34946043E-02  2.34726953E-01  8.13757326E-01  1.00000000E+00  3.34946043E-02
  2.34726953E-01  8.13757326E-01  1.00000000E+00  3.34946043E-02  2.34726953E-01
  8.13757326E-01  1.00000000E+00  3.34946043E-02  2.34726953E-01  8.13757326E-01
  1.00000000E+00  3.34946043E-02  2.34726953E-01  8.13757326E-01  1.00000000E+00
P(S=P) Contraction coefficients            R   N=         125
  0.00000000E+00  0.00000000E+00  0.00000000E+00  0.00000000E+00  0.00000000E+00
  0.00000000E+00  6.89990666E-02  3.16423961E-01  7.44308291E-01  1.00000000E+00
  0.00000000E+00  0.00000000E+00  0.00000000E+00  0.00000000E+00  0.00000000E+00
  0.00000000E+00  0.00000000E+00  0.00000000E+00  0.00000000E+00  0.00000000E+00
  0.00000000E+00  6.89990666E-02  3.16423961E-01  7.44308291E-01  1.00000000E+00
  0.00000000E+00  0.00000000E+00  0.00000000E+00  0.00000000E+00  0.00000000E+00
  0.00000000E+00  0.00000000E+00  6.89990666E-02  3.16423961E-01  7.44308291E-01
  1.00000000E+00  0.00000000E+00  0.00000000E+00  0.00000000E+00  0.00000000E+00
  0.00000000E+00  0.00000000E+00  0.00000000E+00  6.89990666E-02  3.16423961E-01
  7.44308291E-01  1.00000000E+00  0.00000000E+00  0.00000000E+00  0.00000000E+00
  0.00000000E+00  0.00000000E+00  0.00000000E+00  0.00000000E+00  6.89990666E-02
  3.16423961E-01  7.44308291E-01  1.00000000E+00  0.00000000E+00  0.00000000E+00
  0.00000000E+00  0.00000000E+00  0.00000000E+00  0.00000000E+00  0.00000000E+00
  0.00000000E+00  0.00000000E+00  0.00000000E+00  0.00000000E+00  0.00000000E+00
  0.00000000E+00  0.00000000E+00  0.00000000E+00  0.00000000E+00  0.00000000E+00
  0.00000000E+00  0.00000000E+00  6.89990666E-02  3.16423961E-01  7.44308291E-01
  1.00000000E+00  0.00000000E+00  0.00000000E+00  0.00000000E+00  0.00000000E+00
  0.00000000E+00  0.00000000E+00  0.00000000E+00  0.00000000E+00  0.00000000E+00
  0.00000000E+00  0.00000000E+00  0.00000000E+00  0.00000000E+00  0.00000000E+00
  0.00000000E+00  0.00000000E+00  0.00000000E+00  0.00000000E+00  0.00000000E+00
  6.89990666E-02  3.16423961E-01  7.44308291E-01  1.00000000E+00  0.00000000E+00
  0.00000000E+00  0.00000000E+00  0.00000000E+00  0.00000000E+00  0.00000000E+00
  0.00000000E+00  0.00000000E+00  0.00000000E+00  0.00000000E+00  0.00000000E+00
  0.00000000E+00  0.00000000E+00  0.00000000E+00  0.00000000E+00  0.00000000E+00
  0.00000000E+00  0.00000000E+00  0.00000000E+00  0.00000000E+00  0.00000000E+00
Coordinates of each shell                  R   N=         156
  0.00000000E+00  0.00000000E+00  0.00000000E+00  0.00000000E+00  0.00000000E+00
  0.00000000E+00  0.00000000E+00  0.00000000E+00  0.00000000E+00  0.00000000E+00
  0.00000000E+00  0.00000000E+00  3.01606469E-01  1.90861076E+00 -7.50699297E-01
  3.01606469E-01  1.90861076E+00 -7.50699297E-01  0.00000000E+00  0.00000000E+00
  2.76364889E+00  0.00000000E+00  0.00000000E+00  2.76364889E+00  0.00000000E+00
  0.00000000E+00  2.76364889E+00  0.00000000E+00  0.00000000E+00  2.76364889E+00
 -1.45395528E-04  5.80712838E-05  5.05382687E+00 -1.45395528E-04  5.80712838E-05
  5.05382687E+00 -1.45395528E-04  5.80712838E-05  5.05382687E+00 -1.45395528E-04
  5.80712838E-05  5.05382687E+00 -7.98333699E-04 -1.69319461E-05  7.83714774E+00
 -7.98333699E-04 -1.69319461E-05  7.83714774E+00 -7.98333699E-04 -1.69319461E-05
  7.83714774E+00 -7.98333699E-04 -1.69319461E-05  7.83714774E+00  4.42271710E-01
  2.71724252E+00  8.80849538E+00  4.42271710E-01  2.71724252E+00  8.80849538E+00
  4.42271710E-01  2.71724252E+00  8.80849538E+00  4.42271710E-01  2.71724252E+00
  8.80849538E+00  2.26056643E+00  3.44967308E+00  8.14424299E+00  2.26056643E+00
  3.44967308E+00  8.14424299E+00 -1.04890843E+00  3.98943274E+00  8.14379503E+00
 -1.04890843E+00  3.98943274E+00  8.14379503E+00  4.45258611E-01  2.73733201E+00
  1.08815253E+01  4.45258611E-01  2.73733201E+00  1.08815253E+01 -2.57602278E+00
 -9.74682808E-01  8.80753051E+00 -2.57602278E+00 -9.74682808E-01  8.80753051E+00
 -2.57602278E+00 -9.74682808E-01  8.80753051E+00 -2.57602278E+00 -9.74682808E-01
  8.80753051E+00 -2.59580381E+00 -9.82028552E-01  1.08805580E+01 -2.59580381E+00
 -9.82028552E-01  1.08805580E+01 -4.11910216E+00  2.33890287E-01  8.14259785E+00
 -4.11910216E+00  2.33890287E-01  8.14259785E+00 -2.93211385E+00 -2.90218297E+00
  8.14280020E+00 -2.93211385E+00 -2.90218297E+00  8.14280020E+00  2.13043757E+00
 -1.74264923E+00  8.80886467E+00  2.13043757E+00 -1.74264923E+00  8.80886467E+00
  2.13043757E+00 -1.74264923E+00  8.80886467E+00  2.13043757E+00 -1.74264923E+00
  8.80886467E+00  1.85567230E+00 -3.68340609E+00  8.14410527E+00  1.85567230E+00
 -3.68340609E+00  8.14410527E+00  3.97805474E+00 -1.08735140E+00  8.14495555E+00
  3.97805474E+00 -1.08735140E+00  8.14495555E+00  2.14560931E+00 -1.75574866E+00
  1.08818959E+01  2.14560931E+00 -1.75574866E+00  1.08818959E+01 -1.80370375E+00
 -6.93141962E-01 -7.50678491E-01 -1.80370375E+00 -6.93141962E-01 -7.50678491E-01
  1.50212005E+00 -1.21550266E+00 -7.50665546E-01  1.50212005E+00 -1.21550266E+00
 -7.50665546E-01
Num ILSW                                   I              100
ILSW                                       I   N=         100
           0           1           0           0           2           0
           0           0           0           0         402          -1
           5           0           0           0           0           0
           0           0           1           0           0           0
           1           1           0           0           0           0
           0           0      100000           0          -1           0
           0           0           0           0           0           0
           0           0           0           1           0           0
           0 -2000000000           1           0           0           0
           0           0           4          52           0           0
           0           0           5           0           0           0
           0           0           0           0           0           1
           0           0           0           0           0           0
           0           0           0           0           0           0
           0           0           0           0           0           0
           0           0           0           0           0           0
           0           0           0           0
Num RLSW                                   I               52
RLSW                                       R   N=          52
  8.00000000E-01  7.20000000E-01  1.00000000E+00  8.10000000E-01  2.00000000E-01
  0.00000000E+00  0.00000000E+00  1.00000000E+00  0.00000000E+00  0.00000000E+00
  0.00000000E+00  0.00000000E+00  1.00000000E+00  0.00000000E+00  0.00000000E+00
  0.00000000E+00  0.00000000E+00  1.00000000E+00  0.00000000E+00  0.00000000E+00
  0.00000000E+00  0.00000000E+00  1.00000000E+00  0.00000000E+00  0.00000000E+00
  0.00000000E+00  0.00000000E+00  1.00000000E+00  0.00000000E+00  0.00000000E+00
  0.00000000E+00  0.00000000E+00  1.00000000E+00  0.00000000E+00  0.00000000E+00
  0.00000000E+00  0.00000000E+00  0.00000000E+00  1.00000000E+00  1.00000000E+00
  0.00000000E+00  1.00000000E+00  0.00000000E+00  0.00000000E+00  0.00000000E+00
  0.00000000E+00  0.00000000E+00  0.00000000E+00  0.00000000E+00  0.00000000E+00
  0.00000000E+00  0.00000000E+00
MxBond                                     I                4
NBond                                      I   N=          19
           4           1           2           2           4           4
           1           1           1           4           1           1
           1           4           1           1           1           1
           1
IBond                                      I   N=          76
           2           3          18          19           1           0
           0           0           1           4           0           0
           3           5           0           0           4           6
          10          14           5           7           8           9
           6           0           0           0           6           0
           0           0           6           0           0           0
           5          11          12          13          10           0
           0           0          10           0           0           0
          10           0           0           0           5          15
          16          17          14           0           0           0
          14           0           0           0          14           0
           0           0           1           0           0           0
           1           0           0           0
RBond                                      R   N=          76
  1.00000000E+00  1.00000000E+00  1.00000000E+00  1.00000000E+00  1.00000000E+00
  0.00000000E+00  0.00000000E+00  0.00000000E+00  1.00000000E+00  3.00000000E+00
  0.00000000E+00  0.00000000E+00  3.00000000E+00  1.00000000E+00  0.00000000E+00
  0.00000000E+00  1.00000000E+00  1.00000000E+00  1.00000000E+00  1.00000000E+00
  1.00000000E+00  1.00000000E+00  1.00000000E+00  1.00000000E+00  1.00000000E+00
  0.00000000E+00  0.00000000E+00  0.00000000E+00  1.00000000E+00  0.00000000E+00
  0.00000000E+00  0.00000000E+00  1.00000000E+00  0.00000000E+00  0.00000000E+00
  0.00000000E+00  1.00000000E+00  1.00000000E+00  1.00000000E+00  1.00000000E+00
  1.00000000E+00  0.00000000E+00  0.00000000E+00  0.00000000E+00  1.00000000E+00
  0.00000000E+00  0.00000000E+00  0.00000000E+00  1.00000000E+00  0.00000000E+00
  0.00000000E+00  0.00000000E+00  1.00000000E+00  1.00000000E+00  1.00000000E+00
  1.00000000E+00  1.00000000E+00  0.00000000E+00  0.00000000E+00  0.00000000E+00
  1.00000000E+00  0.00000000E+00  0.00000000E+00  0.00000000E+00  1.00000000E+00
  0.00000000E+00  0.00000000E+00  0.00000000E+00  1.00000000E+00  0.00000000E+00
  0.00000000E+00  0.00000000E+00  1.00000000E+00  0.00000000E+00  0.00000000E+00
  0.00000000E+00
Virial Ratio                               R      2.010167855445247E+00
SCF Energy                                 R     -2.739205693555589E+02
Total Energy                               R     -2.739205693555589E+02
RMS Density                                R      6.384464803338930E-09
Job Status                                 I                1
Nuclear derivative order                   I                0
External E-field                           R   N=          35
  0.00000000E+00  0.00000000E+00  0.00000000E+00  0.00000000E+00  0.00000000E+00
  0.00000000E+00  0.00000000E+00  0.00000000E+00  0.00000000E+00  0.00000000E+00
  0.00000000E+00  0.00000000E+00  0.00000000E+00  0.00000000E+00  0.00000000E+00
  0.00000000E+00  0.00000000E+00  0.00000000E+00  0.00000000E+00  0.00000000E+00
  0.00000000E+00  0.00000000E+00  0.00000000E+00  0.00000000E+00  0.00000000E+00
  0.00000000E+00  0.00000000E+00  0.00000000E+00  0.00000000E+00  0.00000000E+00
  0.00000000E+00  0.00000000E+00  0.00000000E+00  0.00000000E+00  0.00000000E+00
IOpCl                                      I                0
IROHF                                      I                0
Alpha Orbital Energies                     R   N=         129
 -1.02125807E+01 -1.01991118E+01 -1.01734410E+01 -1.01734407E+01 -1.01734296E+01
 -1.01690287E+01 -1.01614459E+01 -8.21553995E-01 -7.59824668E-01 -6.82837977E-01
 -6.82080757E-01 -6.82078693E-01 -5.79937418E-01 -4.76091381E-01 -4.45172199E-01
 -4.35282166E-01 -4.35281636E-01 -4.19898721E-01 -4.19896991E-01 -3.87595697E-01
 -3.87594305E-01 -3.62872260E-01 -3.52919632E-01 -3.33958085E-01 -3.33954912E-01
 -2.39127815E-01 -2.39126084E-01  6.80860739E-02  6.80862909E-02  8.80402072E-02
  1.16571298E-01  1.36662263E-01  1.55364270E-01  1.55366047E-01  1.69353595E-01
  1.69356063E-01  1.84501392E-01  1.84504521E-01  2.05910615E-01  2.11174953E-01
  2.11186776E-01  2.26719598E-01  2.27188328E-01  2.68802144E-01  2.68805288E-01
  2.77099962E-01  4.07701338E-01  4.98952816E-01  5.08306259E-01  5.08314828E-01
  5.32405390E-01  5.32409391E-01  5.76851801E-01  6.14609806E-01  6.14615997E-01
  6.23051252E-01  6.61098647E-01  6.61101615E-01  7.20159525E-01  7.20176250E-01
  7.58125363E-01  7.58134689E-01  7.73841347E-01  8.36857342E-01  8.48324253E-01
  8.48326067E-01  8.68324761E-01  8.72481871E-01  9.01862513E-01  9.13264283E-01
  9.13271101E-01  9.18251368E-01  9.36869007E-01  9.36871507E-01  9.50968751E-01
  9.77821793E-01  9.77827508E-01  9.92273267E-01  1.00201372E+00  1.00203063E+00
  1.11361543E+00  1.33254397E+00  1.33255483E+00  1.41628133E+00  1.42266291E+00
  1.42268804E+00  1.49793251E+00  1.57372960E+00  1.57375165E+00  1.61115747E+00
  1.61117553E+00  1.64301199E+00  1.72673104E+00  1.81703601E+00  1.81704615E+00
  1.84149928E+00  1.86635625E+00  1.86638125E+00  1.94536141E+00  1.94541343E+00
  2.01014855E+00  2.09669599E+00  2.09671927E+00  2.09932580E+00  2.10378837E+00
  2.10380959E+00  2.16276062E+00  2.24703718E+00  2.24704117E+00  2.26472818E+00
  2.26473605E+00  2.26711152E+00  2.37393790E+00  2.41377732E+00  2.48547610E+00
  2.48548707E+00  2.67104547E+00  2.67105513E+00  2.80120211E+00  2.94201660E+00
  2.94202802E+00  3.52031705E+00  4.11785016E+00  4.19913306E+00  4.30898605E+00
  4.30898828E+00  4.38575048E+00  4.62013310E+00  4.90943545E+00
Alpha MO coefficients                      R   N=       16641
 -3.89241959E-06  3.30180066E-05  2.29820803E-08  7.62437743E-09  9.10339406E-06
  2.05726647E-03 -2.09682979E-07 -1.29367336E-07  7.31393335E-04  5.07881989E-06
  5.05535798E-06 -1.02926338E-04  1.02635705E-08 -1.30892496E-08 -1.06536388E-08
 -2.40185854E-05 -1.96628929E-06  5.70567397E-05  1.00306068E-04 -2.86384967E-08
  1.24685429E-08  3.56315824E-04  1.23821207E-02  2.50137879E-07  3.59241047E-07
  7.26908633E-03 -8.04083650E-06 -8.04025023E-06  3.65377002E-04 -6.11840877E-10
  6.20282116E-08  3.92957964E-08  2.95401529E-03  2.11184419E-04  5.24784005E-08
  1.29215108E-08 -2.11551324E-04 -6.14754206E-04 -2.58883408E-06 -5.36531280E-08
  1.61118855E-02 -3.57912572E-06 -3.56919721E-06 -8.76381220E-04 -7.34724689E-09
  1.35230205E-07 -3.21255135E-09  9.93511042E-01  5.13080638E-02  6.32109148E-08
  2.22742400E-08 -2.12451029E-04 -3.61228554E-02 -1.20214021E-06 -3.48890770E-07
  4.42573005E-03 -8.17716754E-03 -8.17717921E-03 -8.16810570E-03 -1.25313760E-08
  2.93733863E-08  4.88115981E-10  2.48044376E-03 -9.09709109E-05 -3.19315544E-05
 -1.95763671E-04 -1.04764232E-04  6.20850062E-03 -3.90705461E-04 -2.39710325E-03
 -9.04466077E-04 -1.46719932E-05 -2.97414742E-04 -1.51859834E-04 -5.47047633E-05
 -7.85553414E-06 -4.83500388E-05 -2.14621142E-04 -1.67635175E-04 -2.14597048E-04
 -1.67475477E-04 -1.87002033E-04 -4.01833552E-04  2.48033441E-03 -9.09790022E-05
  1.85534754E-04  7.02228804E-05 -1.04653970E-04  6.20829128E-03  2.27167572E-03
  8.59802712E-04 -9.03714152E-04 -2.67810980E-04 -4.43209034E-05 -1.51848359E-04
 -1.14000899E-04  4.57616548E-05  1.73081003E-05 -1.86991265E-04 -4.01719995E-04
 -2.14621140E-04 -1.67590191E-04 -2.14623973E-04 -1.67564054E-04  2.48069723E-03
 -9.09478952E-05 -1.53507703E-04  1.25541816E-04 -1.04780842E-04  6.20837655E-03
 -1.88008124E-03  1.53727122E-03 -9.04846821E-04 -1.85681371E-04 -1.26412351E-04
 -1.51862167E-04  1.68741367E-04 -3.79288832E-05  3.10448577E-05 -2.14602562E-04
 -1.67560670E-04 -2.14599609E-04 -1.67542149E-04 -1.86995863E-04 -4.01772932E-04
 -2.40664037E-05 -2.09911396E-06 -2.40220765E-05 -1.98557053E-06  9.92932737E-01
  5.01185438E-02  1.06080998E-08 -1.16603841E-08  2.80096480E-04 -1.98557952E-02
 -5.81273095E-08  5.43130721E-08 -2.18496363E-03 -9.09428672E-03 -9.09428274E-03
 -9.04652157E-03  4.53620750E-09 -3.87506749E-10 -3.31873390E-09  4.74359995E-05
  2.74027618E-03  5.13764571E-03  6.98727087E-05  1.00969635E-08 -7.47804602E-09
  2.96465184E-04  4.75533718E-03  4.07957250E-08 -2.84063425E-10 -5.40323215E-03
 -1.92288004E-04 -1.92287180E-04 -8.75824954E-04  1.08850973E-10  1.01769989E-08
 -5.48761960E-09  1.47211102E-04  2.11982405E-04  1.92143303E-08 -1.02001010E-08
 -2.91867693E-04  2.64527586E-03  1.11261945E-07 -7.27587163E-08 -1.90118174E-04
  1.34256571E-05  1.34262025E-05  2.54917849E-04 -8.84256976E-10 -5.11996945E-08
  1.18704473E-08  7.49904309E-06  7.80567882E-05  3.19038159E-09 -2.07040905E-09
  5.62273753E-05 -5.08649404E-04 -2.06383762E-07  5.16803946E-09  2.64448908E-04