CCtBu                                                                   
SP        RB3LYP                                                      6-31G(d)            
Number of atoms                            I               16
Info1-9                                    I   N=           9
          25          25           0           0           0         110
           1          18        -502
Full Title                                 C   N=           1
CCtBu       
Route                                      C   N=           2
# nosymm b3lyp/6-31G*   
Charge                                     I                0
Multiplicity                               I                1
Number of electrons                        I               46
Number of alpha electrons                  I               23
Number of beta electrons                   I               23
Number of basis functions                  I              110
Number of independent functions            I              110
Number of point charges in /Mol/           I                0
Number of translation vectors              I                0
Atomic numbers                             I   N=          16
           1           6           6           6           6           1
           1           1           6           1           1           1
           6           1           1           1
Nuclear charges                            R   N=          16
  1.00000000E+00  6.00000000E+00  6.00000000E+00  6.00000000E+00  6.00000000E+00
  1.00000000E+00  1.00000000E+00  1.00000000E+00  6.00000000E+00  1.00000000E+00
  1.00000000E+00  1.00000000E+00  6.00000000E+00  1.00000000E+00  1.00000000E+00
  1.00000000E+00
Current cartesian coordinates              R   N=          48
  0.00000000E+00  0.00000000E+00  0.00000000E+00  0.00000000E+00  0.00000000E+00
  2.00675686E+00  3.77945225E-05  0.00000000E+00  4.27537308E+00  1.11493841E-03
 -7.55890450E-05  7.04641077E+00  2.71856000E+00 -4.08218637E-01  8.00368934E+00
  3.46689155E+00 -2.20908984E+00  7.33882699E+00  3.96309583E+00  1.09284752E+00
  7.33797662E+00  2.74153907E+00 -4.11109918E-01  1.00670435E+01 -1.00357685E+00
  2.55704511E+00  8.00516332E+00 -1.01102237E+00  2.57773761E+00  1.00685364E+01
  1.81300324E-01  4.10580795E+00  7.33988524E+00 -2.92629760E+00  2.88445906E+00
  7.34094349E+00 -1.71058009E+00 -2.14905324E+00  8.00527671E+00 -3.64477147E+00
 -1.89664252E+00  7.34164269E+00 -1.03354791E+00 -3.97759003E+00  7.33946950E+00
 -1.72322236E+00 -2.16710013E+00  1.00686498E+01
Number of symbols in /Mol/                 I                0
Force Field                                I                0
Atom Types                                 C   N=          16
                                                            
                                                            
                                                            
            
Int Atom Types                             I   N=          16
           0           0           0           0           0           0
           0           0           0           0           0           0
           0           0           0           0
MM charges                                 R   N=          16
  0.00000000E+00  0.00000000E+00  0.00000000E+00  0.00000000E+00  0.00000000E+00
  0.00000000E+00  0.00000000E+00  0.00000000E+00  0.00000000E+00  0.00000000E+00
  0.00000000E+00  0.00000000E+00  0.00000000E+00  0.00000000E+00  0.00000000E+00
  0.00000000E+00
Integer atomic weights                     I   N=          16
           1          12          12          12          12           1
           1           1          12           1           1           1
          12           1           1           1
Real atomic weights                        R   N=          16
  1.00782504E+00  1.20000000E+01  1.20000000E+01  1.20000000E+01  1.20000000E+01
  1.00782504E+00  1.00782504E+00  1.00782504E+00  1.20000000E+01  1.00782504E+00
  1.00782504E+00  1.00782504E+00  1.20000000E+01  1.00782504E+00  1.00782504E+00
  1.00782504E+00
Atom fragment info                         I   N=          16
           0           0           0           0           0           0
           0           0           0           0           0           0
           0           0           0           0
Atom residue num                           I   N=          16
           0           0           0           0           0           0
           0           0           0           0           0           0
           0           0           0           0
Nuclear spins                              I   N=          16
           1           0           0           0           0           1
           1           1           0           1           1           1
           0           1           1           1
Nuclear ZEff                               R   N=          16
 -1.00000000E+00 -3.60000000E+00 -3.60000000E+00 -3.60000000E+00 -3.60000000E+00
 -1.00000000E+00 -1.00000000E+00 -1.00000000E+00 -3.60000000E+00 -1.00000000E+00
 -1.00000000E+00 -1.00000000E+00 -3.60000000E+00 -1.00000000E+00 -1.00000000E+00
 -1.00000000E+00
Nuclear ZNuc                               R   N=          16
  1.00000000E+00  6.00000000E+00  6.00000000E+00  6.00000000E+00  6.00000000E+00
  1.00000000E+00  1.00000000E+00  1.00000000E+00  6.00000000E+00  1.00000000E+00
  1.00000000E+00  1.00000000E+00  6.00000000E+00  1.00000000E+00  1.00000000E+00
  1.00000000E+00
Nuclear QMom                               R   N=          16
  0.00000000E+00  0.00000000E+00  0.00000000E+00  0.00000000E+00  0.00000000E+00
  0.00000000E+00  0.00000000E+00  0.00000000E+00  0.00000000E+00  0.00000000E+00
  0.00000000E+00  0.00000000E+00  0.00000000E+00  0.00000000E+00  0.00000000E+00
  0.00000000E+00
Nuclear GFac                               R   N=          16
  2.79284600E+00  0.00000000E+00  0.00000000E+00  0.00000000E+00  0.00000000E+00
  2.79284600E+00  2.79284600E+00  2.79284600E+00  0.00000000E+00  2.79284600E+00
  2.79284600E+00  2.79284600E+00  0.00000000E+00  2.79284600E+00  2.79284600E+00
  2.79284600E+00
MicOpt                                     I   N=          16
          -1          -1          -1          -1          -1          -1
          -1          -1          -1          -1          -1          -1
          -1          -1          -1          -1
Number of residues                         I                0
Number of secondary structures             I                0
Number of contracted shells                I               44
Number of primitive shells                 I              106
Pure/Cartesian d shells                    I                1
Pure/Cartesian f shells                    I                0
Highest angular momentum                   I                2
Largest degree of contraction              I                6
Shell types                                I   N=          44
           0           0           0          -1          -1           2
           0          -1          -1           2           0          -1
          -1           2           0          -1          -1           2
           0           0           0           0           0           0
           0          -1          -1           2           0           0
           0           0           0           0           0          -1
          -1           2           0           0           0           0
           0           0
Number of primitives per shell             I   N=          44
           3           1           6           3           1           1
           6           3           1           1           6           3
           1           1           6           3           1           1
           3           1           3           1           3           1
           6           3           1           1           3           1
           3           1           3           1           6           3
           1           1           3           1           3           1
           3           1
Shell to atom map                          I   N=          44
           1           1           2           2           2           2
           3           3           3           3           4           4
           4           4           5           5           5           5
           6           6           7           7           8           8
           9           9           9           9          10          10
          11          11          12          12          13          13
          13          13          14          14          15          15
          16          16
Primitive exponents                        R   N=         106
  1.87311370E+01  2.82539436E+00  6.40121692E-01  1.61277759E-01  3.04752488E+03
  4.57369518E+02  1.03948685E+02  2.92101553E+01  9.28666296E+00  3.16392696E+00
  7.86827235E+00  1.88128854E+00  5.44249258E-01  1.68714478E-01  8.00000000E-01
  3.04752488E+03  4.57369518E+02  1.03948685E+02  2.92101553E+01  9.28666296E+00
  3.16392696E+00  7.86827235E+00  1.88128854E+00  5.44249258E-01  1.68714478E-01
  8.00000000E-01  3.04752488E+03  4.57369518E+02  1.03948685E+02  2.92101553E+01
  9.28666296E+00  3.16392696E+00  7.86827235E+00  1.88128854E+00  5.44249258E-01
  1.68714478E-01  8.00000000E-01  3.04752488E+03  4.57369518E+02  1.03948685E+02
  2.92101553E+01  9.28666296E+00  3.16392696E+00  7.86827235E+00  1.88128854E+00
  5.44249258E-01  1.68714478E-01  8.00000000E-01  1.87311370E+01  2.82539436E+00
  6.40121692E-01  1.61277759E-01  1.87311370E+01  2.82539436E+00  6.40121692E-01
  1.61277759E-01  1.87311370E+01  2.82539436E+00  6.40121692E-01  1.61277759E-01
  3.04752488E+03  4.57369518E+02  1.03948685E+02  2.92101553E+01  9.28666296E+00
  3.16392696E+00  7.86827235E+00  1.88128854E+00  5.44249258E-01  1.68714478E-01
  8.00000000E-01  1.87311370E+01  2.82539436E+00  6.40121692E-01  1.61277759E-01
  1.87311370E+01  2.82539436E+00  6.40121692E-01  1.61277759E-01  1.87311370E+01
  2.82539436E+00  6.40121692E-01  1.61277759E-01  3.04752488E+03  4.57369518E+02
  1.03948685E+02  2.92101553E+01  9.28666296E+00  3.16392696E+00  7.86827235E+00
  1.88128854E+00  5.44249258E-01  1.68714478E-01  8.00000000E-01  1.87311370E+01
  2.82539436E+00  6.40121692E-01  1.61277759E-01  1.87311370E+01  2.82539436E+00
  6.40121692E-01  1.61277759E-01  1.87311370E+01  2.82539436E+00  6.40121692E-01
  1.61277759E-01
Contraction coefficients                   R   N=         106
  3.34946043E-02  2.34726953E-01  8.13757326E-01  1.00000000E+00  1.83473713E-03
  1.40373228E-02  6.88426223E-02  2.32184443E-01  4.67941348E-01  3.62311985E-01
 -1.19332420E-01 -1.60854152E-01  1.14345644E+00  1.00000000E+00  1.00000000E+00
  1.83473713E-03  1.40373228E-02  6.88426223E-02  2.32184443E-01  4.67941348E-01
  3.62311985E-01 -1.19332420E-01 -1.60854152E-01  1.14345644E+00  1.00000000E+00
  1.00000000E+00  1.83473713E-03  1.40373228E-02  6.88426223E-02  2.32184443E-01
  4.67941348E-01  3.62311985E-01 -1.19332420E-01 -1.60854152E-01  1.14345644E+00
  1.00000000E+00  1.00000000E+00  1.83473713E-03  1.40373228E-02  6.88426223E-02
  2.32184443E-01  4.67941348E-01  3.62311985E-01 -1.19332420E-01 -1.60854152E-01
  1.14345644E+00  1.00000000E+00  1.00000000E+00  3.34946043E-02  2.34726953E-01
  8.13757326E-01  1.00000000E+00  3.34946043E-02  2.34726953E-01  8.13757326E-01
  1.00000000E+00  3.34946043E-02  2.34726953E-01  8.13757326E-01  1.00000000E+00
  1.83473713E-03  1.40373228E-02  6.88426223E-02  2.32184443E-01  4.67941348E-01
  3.62311985E-01 -1.19332420E-01 -1.60854152E-01  1.14345644E+00  1.00000000E+00
  1.00000000E+00  3.34946043E-02  2.34726953E-01  8.13757326E-01  1.00000000E+00
  3.34946043E-02  2.34726953E-01  8.13757326E-01  1.00000000E+00  3.34946043E-02
  2.34726953E-01  8.13757326E-01  1.00000000E+00  1.83473713E-03  1.40373228E-02
  6.88426223E-02  2.32184443E-01  4.67941348E-01  3.62311985E-01 -1.19332420E-01
 -1.60854152E-01  1.14345644E+00  1.00000000E+00  1.00000000E+00  3.34946043E-02
  2.34726953E-01  8.13757326E-01  1.00000000E+00  3.34946043E-02  2.34726953E-01
  8.13757326E-01  1.00000000E+00  3.34946043E-02  2.34726953E-01  8.13757326E-01
  1.00000000E+00
P(S=P) Contraction coefficients            R   N=         106
  0.00000000E+00  0.00000000E+00  0.00000000E+00  0.00000000E+00  0.00000000E+00
  0.00000000E+00  0.00000000E+00  0.00000000E+00  0.00000000E+00  0.00000000E+00
  6.89990666E-02  3.16423961E-01  7.44308291E-01  1.00000000E+00  0.00000000E+00
  0.00000000E+00  0.00000000E+00  0.00000000E+00  0.00000000E+00  0.00000000E+00
  0.00000000E+00  6.89990666E-02  3.16423961E-01  7.44308291E-01  1.00000000E+00
  0.00000000E+00  0.00000000E+00  0.00000000E+00  0.00000000E+00  0.00000000E+00
  0.00000000E+00  0.00000000E+00  6.89990666E-02  3.16423961E-01  7.44308291E-01
  1.00000000E+00  0.00000000E+00  0.00000000E+00  0.00000000E+00  0.00000000E+00
  0.00000000E+00  0.00000000E+00  0.00000000E+00  6.89990666E-02  3.16423961E-01
  7.44308291E-01  1.00000000E+00  0.00000000E+00  0.00000000E+00  0.00000000E+00
  0.00000000E+00  0.00000000E+00  0.00000000E+00  0.00000000E+00  0.00000000E+00
  0.00000000E+00  0.00000000E+00  0.00000000E+00  0.00000000E+00  0.00000000E+00
  0.00000000E+00  0.00000000E+00  0.00000000E+00  0.00000000E+00  0.00000000E+00
  0.00000000E+00  6.89990666E-02  3.16423961E-01  7.44308291E-01  1.00000000E+00
  0.00000000E+00  0.00000000E+00  0.00000000E+00  0.00000000E+00  0.00000000E+00
  0.00000000E+00  0.00000000E+00  0.00000000E+00  0.00000000E+00  0.00000000E+00
  0.00000000E+00  0.00000000E+00  0.00000000E+00  0.00000000E+00  0.00000000E+00
  0.00000000E+00  0.00000000E+00  0.00000000E+00  0.00000000E+00  6.89990666E-02
  3.16423961E-01  7.44308291E-01  1.00000000E+00  0.00000000E+00  0.00000000E+00
  0.00000000E+00  0.00000000E+00  0.00000000E+00  0.00000000E+00  0.00000000E+00
  0.00000000E+00  0.00000000E+00  0.00000000E+00  0.00000000E+00  0.00000000E+00
  0.00000000E+00
Coordinates of each shell                  R   N=         132
  0.00000000E+00  0.00000000E+00  0.00000000E+00  0.00000000E+00  0.00000000E+00
  0.00000000E+00  0.00000000E+00  0.00000000E+00  2.00675686E+00  0.00000000E+00
  0.00000000E+00  2.00675686E+00  0.00000000E+00  0.00000000E+00  2.00675686E+00
  0.00000000E+00  0.00000000E+00  2.00675686E+00  3.77945225E-05  0.00000000E+00
  4.27537308E+00  3.77945225E-05  0.00000000E+00  4.27537308E+00  3.77945225E-05
  0.00000000E+00  4.27537308E+00  3.77945225E-05  0.00000000E+00  4.27537308E+00
  1.11493841E-03 -7.55890450E-05  7.04641077E+00  1.11493841E-03 -7.55890450E-05
  7.04641077E+00  1.11493841E-03 -7.55890450E-05  7.04641077E+00  1.11493841E-03
 -7.55890450E-05  7.04641077E+00  2.71856000E+00 -4.08218637E-01  8.00368934E+00
  2.71856000E+00 -4.08218637E-01  8.00368934E+00  2.71856000E+00 -4.08218637E-01
  8.00368934E+00  2.71856000E+00 -4.08218637E-01  8.00368934E+00  3.46689155E+00
 -2.20908984E+00  7.33882699E+00  3.46689155E+00 -2.20908984E+00  7.33882699E+00
  3.96309583E+00  1.09284752E+00  7.33797662E+00  3.96309583E+00  1.09284752E+00
  7.33797662E+00  2.74153907E+00 -4.11109918E-01  1.00670435E+01  2.74153907E+00
 -4.11109918E-01  1.00670435E+01 -1.00357685E+00  2.55704511E+00  8.00516332E+00
 -1.00357685E+00  2.55704511E+00  8.00516332E+00 -1.00357685E+00  2.55704511E+00
  8.00516332E+00 -1.00357685E+00  2.55704511E+00  8.00516332E+00 -1.01102237E+00
  2.57773761E+00  1.00685364E+01 -1.01102237E+00  2.57773761E+00  1.00685364E+01
  1.81300324E-01  4.10580795E+00  7.33988524E+00  1.81300324E-01  4.10580795E+00
  7.33988524E+00 -2.92629760E+00  2.88445906E+00  7.34094349E+00 -2.92629760E+00
  2.88445906E+00  7.34094349E+00 -1.71058009E+00 -2.14905324E+00  8.00527671E+00
 -1.71058009E+00 -2.14905324E+00  8.00527671E+00 -1.71058009E+00 -2.14905324E+00
  8.00527671E+00 -1.71058009E+00 -2.14905324E+00  8.00527671E+00 -3.64477147E+00
 -1.89664252E+00  7.34164269E+00 -3.64477147E+00 -1.89664252E+00  7.34164269E+00
 -1.03354791E+00 -3.97759003E+00  7.33946950E+00 -1.03354791E+00 -3.97759003E+00
  7.33946950E+00 -1.72322236E+00 -2.16710013E+00  1.00686498E+01 -1.72322236E+00
 -2.16710013E+00  1.00686498E+01
Num ILSW                                   I              100
ILSW                                       I   N=         100
           0           1           0           0           2           0
           0           0           0           0         402          -1
           5           0           0           0           0           0
           0           0           1           0           0           0
           1           1           0           0           0           0
           0           0      100000           0          -1           0
           0           0           0           0           0           0
           0           0           0           1           0           0
           0 -2000000000           1           0           0           0
           0           0           4          52           0           0
           0           0           5           0           0           0
           0           0           0           0           0           1
           0           0           0           0           0           0
           0           0           0           0           0           0
           0           0           0           0           0           0
           0           0           0           0           0           0
           0           0           0           0
Num RLSW                                   I               52
RLSW                                       R   N=          52
  8.00000000E-01  7.20000000E-01  1.00000000E+00  8.10000000E-01  2.00000000E-01
  0.00000000E+00  0.00000000E+00  1.00000000E+00  0.00000000E+00  0.00000000E+00
  0.00000000E+00  0.00000000E+00  1.00000000E+00  0.00000000E+00  0.00000000E+00
  0.00000000E+00  0.00000000E+00  1.00000000E+00  0.00000000E+00  0.00000000E+00
  0.00000000E+00  0.00000000E+00  1.00000000E+00  0.00000000E+00  0.00000000E+00
  0.00000000E+00  0.00000000E+00  1.00000000E+00  0.00000000E+00  0.00000000E+00
  0.00000000E+00  0.00000000E+00  1.00000000E+00  0.00000000E+00  0.00000000E+00
  0.00000000E+00  0.00000000E+00  0.00000000E+00  1.00000000E+00  1.00000000E+00
  0.00000000E+00  1.00000000E+00  0.00000000E+00  0.00000000E+00  0.00000000E+00
  0.00000000E+00  0.00000000E+00  0.00000000E+00  0.00000000E+00  0.00000000E+00
  0.00000000E+00  0.00000000E+00
MxBond                                     I                4
NBond                                      I   N=          16
           1           2           2           4           4           1
           1           1           4           1           1           1
           4           1           1           1
IBond                                      I   N=          64
           2           0           0           0           1           3
           0           0           2           4           0           0
           3           5           9          13           4           6
           7           8           5           0           0           0
           5           0           0           0           5           0
           0           0           4          10          11          12
           9           0           0           0           9           0
           0           0           9           0           0           0
           4          14          15          16          13           0
           0           0          13           0           0           0
          13           0           0           0
RBond                                      R   N=          64
  1.00000000E+00  0.00000000E+00  0.00000000E+00  0.00000000E+00  1.00000000E+00
  3.00000000E+00  0.00000000E+00  0.00000000E+00  3.00000000E+00  1.00000000E+00
  0.00000000E+00  0.00000000E+00  1.00000000E+00  1.00000000E+00  1.00000000E+00
  1.00000000E+00  1.00000000E+00  1.00000000E+00  1.00000000E+00  1.00000000E+00
  1.00000000E+00  0.00000000E+00  0.00000000E+00  0.00000000E+00  1.00000000E+00
  0.00000000E+00  0.00000000E+00  0.00000000E+00  1.00000000E+00  0.00000000E+00
  0.00000000E+00  0.00000000E+00  1.00000000E+00  1.00000000E+00  1.00000000E+00
  1.00000000E+00  1.00000000E+00  0.00000000E+00  0.00000000E+00  0.00000000E+00
  1.00000000E+00  0.00000000E+00  0.00000000E+00  0.00000000E+00  1.00000000E+00
  0.00000000E+00  0.00000000E+00  0.00000000E+00  1.00000000E+00  1.00000000E+00
  1.00000000E+00  1.00000000E+00  1.00000000E+00  0.00000000E+00  0.00000000E+00
  0.00000000E+00  1.00000000E+00  0.00000000E+00  0.00000000E+00  0.00000000E+00
  1.00000000E+00  0.00000000E+00  0.00000000E+00  0.00000000E+00
Virial Ratio                               R      2.009519219377452E+00
SCF Energy                                 R     -2.345947086972026E+02
Total Energy                               R     -2.345947086972026E+02
RMS Density                                R      5.543248531881630E-09
Job Status                                 I                1
Nuclear derivative order                   I                0
External E-field                           R   N=          35
  0.00000000E+00  0.00000000E+00  0.00000000E+00  0.00000000E+00  0.00000000E+00
  0.00000000E+00  0.00000000E+00  0.00000000E+00  0.00000000E+00  0.00000000E+00
  0.00000000E+00  0.00000000E+00  0.00000000E+00  0.00000000E+00  0.00000000E+00
  0.00000000E+00  0.00000000E+00  0.00000000E+00  0.00000000E+00  0.00000000E+00
  0.00000000E+00  0.00000000E+00  0.00000000E+00  0.00000000E+00  0.00000000E+00
  0.00000000E+00  0.00000000E+00  0.00000000E+00  0.00000000E+00  0.00000000E+00
  0.00000000E+00  0.00000000E+00  0.00000000E+00  0.00000000E+00  0.00000000E+00
IOpCl                                      I                0
IROHF                                      I                0
Alpha Orbital Energies                     R   N=         110
 -1.02166812E+01 -1.01764883E+01 -1.01764877E+01 -1.01764767E+01 -1.01737886E+01
 -1.01684029E+01 -8.30463634E-01 -7.24078130E-01 -6.88801481E-01 -6.88798537E-01
 -5.97373144E-01 -5.11675669E-01 -4.71816944E-01 -4.41332304E-01 -4.41328891E-01
 -3.94149153E-01 -3.94144819E-01 -3.68258026E-01 -3.59413636E-01 -3.40638514E-01
 -3.40637097E-01 -2.57808466E-01 -2.57807644E-01  6.62807229E-02  6.62862905E-02
  8.51161004E-02  1.29009268E-01  1.39417929E-01  1.52815173E-01  1.52823005E-01
  1.69001114E-01  1.69005966E-01  2.05287373E-01  2.05305017E-01  2.10328521E-01
  2.24974363E-01  2.59045158E-01  2.59050541E-01  2.60107985E-01  4.38571897E-01
  4.96729507E-01  5.03551717E-01  5.03561540E-01  5.29227467E-01  5.29240673E-01
  5.84377280E-01  6.25124769E-01  6.32349687E-01  6.32355905E-01  6.91738620E-01
  6.91761144E-01  7.34133432E-01  7.34143095E-01  7.71010173E-01  8.44325389E-01
  8.65098082E-01  8.69126869E-01  8.87218588E-01  8.87248283E-01  8.97946490E-01
  9.15724546E-01  9.15726894E-01  9.39007729E-01  9.39014307E-01  9.51427625E-01
  9.90407875E-01  9.94267866E-01  9.94273941E-01  1.18477208E+00  1.33544633E+00
  1.33547447E+00  1.41892092E+00  1.41893655E+00  1.44130947E+00  1.55387129E+00
  1.60323196E+00  1.60324356E+00  1.67467522E+00  1.67469544E+00  1.72244172E+00
  1.82530272E+00  1.86080291E+00  1.86080980E+00  1.95772895E+00  1.95788306E+00
  2.02026337E+00  2.02061530E+00  2.02076979E+00  2.10287706E+00  2.10290320E+00
  2.12834541E+00  2.25659164E+00  2.25659610E+00  2.26973609E+00  2.29630355E+00
  2.39166187E+00  2.41417875E+00  2.41421679E+00  2.65258205E+00  2.65261585E+00
  2.68460728E+00  2.85343565E+00  2.85345535E+00  3.40480508E+00  4.18875215E+00
  4.22701380E+00  4.30543250E+00  4.30543800E+00  4.45526609E+00  4.85646507E+00
Alpha MO coefficients                      R   N=       12100
  2.50464815E-05  1.02761089E-03  7.82279190E-05  1.89694605E-04 -7.13540136E-08
  7.10105962E-09  3.98367868E-04  1.02594727E-02 -8.54928166E-07  5.03201727E-08
  4.89904326E-03 -4.55275934E-06 -4.54763695E-06  2.44600167E-04  1.30792506E-09
 -2.29005448E-07  1.57932423E-08  3.66613796E-03  2.04688205E-04 -8.50065575E-08
  8.67012036E-09 -2.33042545E-04  1.83356323E-03  3.22234128E-06 -1.71077177E-07
  1.40942763E-02 -2.21959034E-05 -2.21914186E-05 -8.29502093E-04 -1.71639262E-09
 -1.88255720E-07  2.09531793E-08  9.93489010E-01  5.14058178E-02 -2.64266589E-07
  3.41612904E-08 -2.71108188E-04 -3.55511405E-02  3.10117312E-06 -4.31544850E-07
  4.16926882E-03 -8.20853632E-03 -8.20859927E-03 -8.19069467E-03 -6.56413283E-09
 -1.85820848E-08 -4.65404156E-09  2.49037750E-03 -9.50557546E-05 -1.85998885E-04
  2.79103236E-05 -1.02509663E-04  6.24271495E-03 -2.41663731E-03  3.63117413E-04
 -8.97061479E-04 -3.04641561E-04 -1.47743763E-05 -1.44787390E-04  5.14425190E-05
 -5.17066203E-05  7.75452983E-06 -2.11945771E-04 -1.71079455E-04 -2.11963257E-04
 -1.71259722E-04 -1.88225446E-04 -3.93174461E-04  2.49036302E-03 -9.50384667E-05
  6.87835357E-05 -1.75091099E-04 -1.02728242E-04  6.24379049E-03  8.93304273E-04
 -2.27466321E-03 -8.97989324E-04 -4.86331678E-05 -2.70631875E-04 -1.44820289E-04
  1.19192147E-04  1.91286911E-05 -4.87670045E-05 -1.88274959E-04 -3.93575559E-04
 -2.11931381E-04 -1.70928771E-04 -2.11955400E-04 -1.71262076E-04  2.49043357E-03
 -9.50117122E-05  1.17136284E-04  1.47174486E-04 -1.02735768E-04  6.24365780E-03
  1.52254855E-03  1.91145835E-03 -8.97980510E-04 -1.25787864E-04 -1.93465076E-04
 -1.44830188E-04 -1.70615464E-04  3.26187607E-05  4.10141144E-05 -2.11907427E-04
 -1.71008603E-04 -2.11961280E-04 -1.71108010E-04 -1.88280458E-04 -3.93598016E-04
  1.17655301E-06  1.67567727E-05 -7.78111905E-06 -8.95890659E-07  2.05941371E-05
 -3.33590359E-06  3.03921048E-06  1.44878808E-04 -2.11611696E-04  3.43898739E-05
  7.41228000E-05 -7.43267199E-06  8.96097244E-06  1.90312748E-06  2.78661069E-06
 -2.35165058E-05  3.82623446E-06 -6.41737724E-05 -1.78252487E-05 -6.74142716E-05
  1.09711460E-05 -7.61633373E-06 -1.82810220E-05  4.23086945E-04 -6.88278935E-05
  1.80666988E-04  1.09338751E-04 -1.15877940E-04 -1.78140949E-06 -3.83020684E-05
  8.12503516E-05 -1.31913133E-05 -1.62174189E-04  1.87875956E-06 -3.20517764E-05
  5.16611017E-06  1.59711166E-06  3.87717712E-05  1.85289241E-03 -3.00410880E-04
  8.05270222E-05 -1.39374523E-04  1.20109329E-04 -6.87942889E-06  4.41072336E-05
 -1.12171053E-04  1.81951467E-05  8.30653281E-01  4.21999052E-02 -1.93091499E-04
  3.08433839E-05  1.46477559E-05 -1.47511543E-02  1.08371436E-03 -1.74625457E-04
 -6.93551470E-05 -7.66915711E-03 -7.54350046E-03 -7.53042262E-03  2.31567249E-05
 -3.80273566E-05  5.41596949E-06 -8.21459800E-06  2.17694771E-03 -6.85707504E-06
  2.19165666E-03  4.61025707E-05  2.59837563E-03 -3.92924013E-01 -1.99870660E-02
 -1.57747063E-04  4.43400619E-05 -1.16426193E-05  7.07482212E-03  9.75415406E-04
 -2.18668509E-04  5.98501624E-05  3.60542187E-03  3.58250177E-03  3.55182212E-03
 -6.86872091E-05  1.27031587E-05  2.51331218E-05 -3.03993194E-05 -1.26833262E-03
 -4.88424727E-05 -1.55354747E-03  4.90011998E-05 -5.03980728E-04 -3.76342394E-01
 -1.91442998E-02 -1.62705188E-04  8.24776353E-06 -1.12260175E-05  6.77920271E-03
  9.91489662E-04 -1.02415791E-04  5.74998186E-05  3.48603631E-03  3.39829040E-03
  3.40168786E-03  4.81252572E-05  5.49096623E-06 -2.73206544E-05  4.95898028E-05
 -4.53398249E-04 -4.95528464E-05 -1.51752687E-03 -2.94626699E-05 -1.21535409E-03
 -3.89204574E-08 -5.92245906E-07  3.19571022E-07  2.65352840E-08 -3.35253927E-06
 -2.06713068E-05 -1.17271111E-07 -5.20438851E-06  3.44438533E-05  2.11854368E-04
 -2.63959934E-06 -2.44389892E-06  2.38337652E-06 -7.66811039E-08 -9.46025144E-06
  3.82443019E-06  2.35079064E-05  2.59276268E-06  7.02912110E-07  1.09739270E-05
  6.74657869E-05  2.92476141E-07  5.22661601E-07 -6.89054915E-05 -4.23381377E-04
 -6.57234453E-06  3.33200253E-05 -3.30522475E-05  8.37259277E-08  1.30033663E-04
 -1.32284179E-05 -8.14142149E-05  6.29289514E-06 -5.45622658E-08  5.16911601E-06
  3.20665768E-05 -7.16872497E-08 -1.81748996E-06 -3.00387700E-04 -1.85406527E-03
 -2.88000701E-06 -3.78255469E-05  3.85925593E-05  2.56796513E-07 -1.49833377E-04
  1.82332239E-05  1.12335692E-04 -1.03386773E-02 -5.24732511E-04  2.48937912E-05
  1.49885796E-04 -1.37326939E-07  1.81456264E-04 -1.55772517E-04 -9.50439125E-04
  7.07544261E-07  1.13045563E-04  7.64536687E-05  9.38922974E-05  6.56910084E-05
 -3.15531708E-06 -2.42871195E-05 -5.67828995E-05 -6.37603872E-04  5.70629730E-05
  5.83350338E-04 -3.42443061E-07 -3.18722064E-05 -6.98123269E-01 -3.54806975E-02
  1.07383160E-05  1.84559535E-04 -1.48453151E-05  1.24506246E-02 -1.11741013E-04
 -1.05926303E-03  7.27314883E-05  6.32877732E-03  6.45226031E-03  6.32339563E-03
 -1.81739558E-05 -2.35450280E-05  2.58014347E-05 -4.34974353E-05 -2.20477506E-03
  3.34866792E-05 -1.52190134E-03 -2.45709063E-05 -2.14508283E-03  7.06063189E-01
  3.58855552E-02  4.78069443E-05  1.79419524E-04  1.52784689E-05 -1.25971120E-02
 -2.28030896E-04 -1.04297244E-03 -7.52768065E-05 -6.42182097E-03 -6.50416839E-03
 -6.39474186E-03 -5.61431891E-05  2.99358040E-05  1.83765702E-05  2.35969639E-05
  2.15298740E-03 -3.21916195E-05  1.55498719E-03  4.43723381E-05  2.23217927E-03
  3.56241538E-05  4.93990181E-04 -2.16529102E-04 -2.89297648E-05 -7.39350162E-07
  9.14348338E-08  8.67705138E-05  4.20869239E-03  7.34871855E-06 -9.22531605E-07
  2.16872486E-03  2.11014192E-05  2.05172142E-05  5.40474618E-05 -1.14257070E-07
  8.05562604E-07 -1.02305728E-07 -1.79134895E-03 -4.95364557E-04  2.37644717E-06
 -2.96767780E-07 -2.16922120E-04 -6.26432033E-04 -1.42637985E-05  1.82915933E-06
  5.19661946E-03 -9.45624335E-05 -8.66155034E-05 -4.93634301E-05  1.55248606E-06
 -2.83908445E-06  3.53676649E-07 -4.53920697E-03  5.74650307E-05  1.11952937E-06
 -1.25421505E-07  4.73307528E-05  1.00658815E-03 -6.52069373E-05  7.96569363E-06
  2.29433091E-03 -2.63143126E-04 -2.72323217E-04 -1.94598919E-04 -1.79772005E-06