CF3                                                                     
SP        RB3LYP                                                      6-31G(d)            
Number of atoms                            I                5
Info1-9                                    I   N=           9
          14          14           0           0           0         110
           1          18        -502
Full Title                                 C   N=           1
CF3         
Route                                      C   N=           2
# nosymm b3lyp/6-31G*   
Charge                                     I                0
Multiplicity                               I                1
Number of electrons                        I               34
Number of alpha electrons                  I               17
Number of beta electrons                   I               17
Number of basis functions                  I               62
Number of independent functions            I               62
Number of point charges in /Mol/           I                0
Number of translation vectors              I                0
Atomic numbers                             I   N=           5
           1           6           9           9           9
Nuclear charges                            R   N=           5
  1.00000000E+00  6.00000000E+00  9.00000000E+00  9.00000000E+00  9.00000000E+00
Current cartesian coordinates              R   N=          15
  0.00000000E+00  0.00000000E+00  0.00000000E+00  0.00000000E+00  0.00000000E+00
  2.06040619E+00 -1.19840762E+00  2.04872768E+00  2.94423110E+00 -1.17627892E+00
 -2.06146443E+00  2.94424999E+00  2.37298579E+00  1.27934459E-02  2.94534604E+00
Number of symbols in /Mol/                 I                0
Force Field                                I                0
Atom Types                                 C   N=           5
                                                            
Int Atom Types                             I   N=           5
           0           0           0           0           0
MM charges                                 R   N=           5
  0.00000000E+00  0.00000000E+00  0.00000000E+00  0.00000000E+00  0.00000000E+00
Integer atomic weights                     I   N=           5
           1          12          19          19          19
Real atomic weights                        R   N=           5
  1.00782504E+00  1.20000000E+01  1.89984032E+01  1.89984032E+01  1.89984032E+01
Atom fragment info                         I   N=           5
           0           0           0           0           0
Atom residue num                           I   N=           5
           0           0           0           0           0
Nuclear spins                              I   N=           5
           1           0           1           1           1
Nuclear ZEff                               R   N=           5
 -1.00000000E+00 -3.60000000E+00 -6.75000000E+00 -6.75000000E+00 -6.75000000E+00
Nuclear ZNuc                               R   N=           5
  1.00000000E+00  6.00000000E+00  9.00000000E+00  9.00000000E+00  9.00000000E+00
Nuclear QMom                               R   N=           5
  0.00000000E+00  0.00000000E+00  0.00000000E+00  0.00000000E+00  0.00000000E+00
Nuclear GFac                               R   N=           5
  2.79284600E+00  0.00000000E+00  2.62886700E+00  2.62886700E+00  2.62886700E+00
MicOpt                                     I   N=           5
          -1          -1          -1          -1          -1
Number of residues                         I                0
Number of secondary structures             I                0
Number of contracted shells                I               18
Number of primitive shells                 I               48
Pure/Cartesian d shells                    I                1
Pure/Cartesian f shells                    I                0
Highest angular momentum                   I                2
Largest degree of contraction              I                6
Shell types                                I   N=          18
           0           0           0          -1          -1           2
           0          -1          -1           2           0          -1
          -1           2           0          -1          -1           2
Number of primitives per shell             I   N=          18
           3           1           6           3           1           1
           6           3           1           1           6           3
           1           1           6           3           1           1
Shell to atom map                          I   N=          18
           1           1           2           2           2           2
           3           3           3           3           4           4
           4           4           5           5           5           5
Primitive exponents                        R   N=          48
  1.87311370E+01  2.82539436E+00  6.40121692E-01  1.61277759E-01  3.04752488E+03
  4.57369518E+02  1.03948685E+02  2.92101553E+01  9.28666296E+00  3.16392696E+00
  7.86827235E+00  1.88128854E+00  5.44249258E-01  1.68714478E-01  8.00000000E-01
  7.00171309E+03  1.05136609E+03  2.39285690E+02  6.73974453E+01  2.15199573E+01
  7.40310130E+00  2.08479528E+01  4.80830834E+00  1.34406986E+00  3.58151393E-01
  8.00000000E-01  7.00171309E+03  1.05136609E+03  2.39285690E+02  6.73974453E+01
  2.15199573E+01  7.40310130E+00  2.08479528E+01  4.80830834E+00  1.34406986E+00
  3.58151393E-01  8.00000000E-01  7.00171309E+03  1.05136609E+03  2.39285690E+02
  6.73974453E+01  2.15199573E+01  7.40310130E+00  2.08479528E+01  4.80830834E+00
  1.34406986E+00  3.58151393E-01  8.00000000E-01
Contraction coefficients                   R   N=          48
  3.34946043E-02  2.34726953E-01  8.13757326E-01  1.00000000E+00  1.83473713E-03
  1.40373228E-02  6.88426223E-02  2.32184443E-01  4.67941348E-01  3.62311985E-01
 -1.19332420E-01 -1.60854152E-01  1.14345644E+00  1.00000000E+00  1.00000000E+00
  1.81961690E-03  1.39160796E-02  6.84053245E-02  2.33185760E-01  4.71267439E-01
  3.56618546E-01 -1.08506975E-01 -1.46451658E-01  1.12868858E+00  1.00000000E+00
  1.00000000E+00  1.81961690E-03  1.39160796E-02  6.84053245E-02  2.33185760E-01
  4.71267439E-01  3.56618546E-01 -1.08506975E-01 -1.46451658E-01  1.12868858E+00
  1.00000000E+00  1.00000000E+00  1.81961690E-03  1.39160796E-02  6.84053245E-02
  2.33185760E-01  4.71267439E-01  3.56618546E-01 -1.08506975E-01 -1.46451658E-01
  1.12868858E+00  1.00000000E+00  1.00000000E+00
P(S=P) Contraction coefficients            R   N=          48
  0.00000000E+00  0.00000000E+00  0.00000000E+00  0.00000000E+00  0.00000000E+00
  0.00000000E+00  0.00000000E+00  0.00000000E+00  0.00000000E+00  0.00000000E+00
  6.89990666E-02  3.16423961E-01  7.44308291E-01  1.00000000E+00  0.00000000E+00
  0.00000000E+00  0.00000000E+00  0.00000000E+00  0.00000000E+00  0.00000000E+00
  0.00000000E+00  7.16287242E-02  3.45912103E-01  7.22469956E-01  1.00000000E+00
  0.00000000E+00  0.00000000E+00  0.00000000E+00  0.00000000E+00  0.00000000E+00
  0.00000000E+00  0.00000000E+00  7.16287242E-02  3.45912103E-01  7.22469956E-01
  1.00000000E+00  0.00000000E+00  0.00000000E+00  0.00000000E+00  0.00000000E+00
  0.00000000E+00  0.00000000E+00  0.00000000E+00  7.16287242E-02  3.45912103E-01
  7.22469956E-01  1.00000000E+00  0.00000000E+00
Coordinates of each shell                  R   N=          54
  0.00000000E+00  0.00000000E+00  0.00000000E+00  0.00000000E+00  0.00000000E+00
  0.00000000E+00  0.00000000E+00  0.00000000E+00  2.06040619E+00  0.00000000E+00
  0.00000000E+00  2.06040619E+00  0.00000000E+00  0.00000000E+00  2.06040619E+00
  0.00000000E+00  0.00000000E+00  2.06040619E+00 -1.19840762E+00  2.04872768E+00
  2.94423110E+00 -1.19840762E+00  2.04872768E+00  2.94423110E+00 -1.19840762E+00
  2.04872768E+00  2.94423110E+00 -1.19840762E+00  2.04872768E+00  2.94423110E+00
 -1.17627892E+00 -2.06146443E+00  2.94424999E+00 -1.17627892E+00 -2.06146443E+00
  2.94424999E+00 -1.17627892E+00 -2.06146443E+00  2.94424999E+00 -1.17627892E+00
 -2.06146443E+00  2.94424999E+00  2.37298579E+00  1.27934459E-02  2.94534604E+00
  2.37298579E+00  1.27934459E-02  2.94534604E+00  2.37298579E+00  1.27934459E-02
  2.94534604E+00  2.37298579E+00  1.27934459E-02  2.94534604E+00
Num ILSW                                   I              100
ILSW                                       I   N=         100
           0           1           0           0           2           0
           0           0           0           0         402          -1
           5           0           0           0           0           0
           0           0           1           0           0           0
           1           1           0           0           0           0
           0           0      100000           0          -1           0
           0           0           0           0           0           0
           0           0           0           1           0           0
           0 -2000000000           1           0           0           0
           0           0           4          52           0           0
           0           0           5           0           0           0
           0           0           0           0           0           1
           0           0           0           0           0           0
           0           0           0           0           0           0
           0           0           0           0           0           0
           0           0           0           0           0           0
           0           0           0           0
Num RLSW                                   I               52
RLSW                                       R   N=          52
  8.00000000E-01  7.20000000E-01  1.00000000E+00  8.10000000E-01  2.00000000E-01
  0.00000000E+00  0.00000000E+00  1.00000000E+00  0.00000000E+00  0.00000000E+00
  0.00000000E+00  0.00000000E+00  1.00000000E+00  0.00000000E+00  0.00000000E+00
  0.00000000E+00  0.00000000E+00  1.00000000E+00  0.00000000E+00  0.00000000E+00
  0.00000000E+00  0.00000000E+00  1.00000000E+00  0.00000000E+00  0.00000000E+00
  0.00000000E+00  0.00000000E+00  1.00000000E+00  0.00000000E+00  0.00000000E+00
  0.00000000E+00  0.00000000E+00  1.00000000E+00  0.00000000E+00  0.00000000E+00
  0.00000000E+00  0.00000000E+00  0.00000000E+00  1.00000000E+00  1.00000000E+00
  0.00000000E+00  1.00000000E+00  0.00000000E+00  0.00000000E+00  0.00000000E+00
  0.00000000E+00  0.00000000E+00  0.00000000E+00  0.00000000E+00  0.00000000E+00
  0.00000000E+00  0.00000000E+00
MxBond                                     I                4
NBond                                      I   N=           5
           1           4           1           1           1
IBond                                      I   N=          20
           2           0           0           0           1           3
           4           5           2           0           0           0
           2           0           0           0           2           0
           0           0
RBond                                      R   N=          20
  1.00000000E+00  0.00000000E+00  0.00000000E+00  0.00000000E+00  1.00000000E+00
  1.00000000E+00  1.00000000E+00  1.00000000E+00  1.00000000E+00  0.00000000E+00
  0.00000000E+00  0.00000000E+00  1.00000000E+00  0.00000000E+00  0.00000000E+00
  0.00000000E+00  1.00000000E+00  0.00000000E+00  0.00000000E+00  0.00000000E+00
Virial Ratio                               R      2.006702539588792E+00
SCF Energy                                 R     -3.382259409907354E+02
Total Energy                               R     -3.382259409907354E+02
RMS Density                                R      3.818492268454459E-09
Job Status                                 I                1
Nuclear derivative order                   I                0
External E-field                           R   N=          35
  0.00000000E+00  0.00000000E+00  0.00000000E+00  0.00000000E+00  0.00000000E+00
  0.00000000E+00  0.00000000E+00  0.00000000E+00  0.00000000E+00  0.00000000E+00
  0.00000000E+00  0.00000000E+00  0.00000000E+00  0.00000000E+00  0.00000000E+00
  0.00000000E+00  0.00000000E+00  0.00000000E+00  0.00000000E+00  0.00000000E+00
  0.00000000E+00  0.00000000E+00  0.00000000E+00  0.00000000E+00  0.00000000E+00
  0.00000000E+00  0.00000000E+00  0.00000000E+00  0.00000000E+00  0.00000000E+00
  0.00000000E+00  0.00000000E+00  0.00000000E+00  0.00000000E+00  0.00000000E+00
IOpCl                                      I                0
IROHF                                      I                0
Alpha Orbital Energies                     R   N=          62
 -2.47288028E+01 -2.47287390E+01 -2.47287322E+01 -1.04324730E+01 -1.30846971E+00
 -1.22123607E+00 -1.22116720E+00 -7.13517938E-01 -6.00164163E-01 -5.84035327E-01
 -5.83998362E-01 -4.59136263E-01 -4.59114327E-01 -4.24558228E-01 -4.24512005E-01
 -4.02687616E-01 -3.89481200E-01  1.17668393E-01  1.56080776E-01  1.56178383E-01
  2.13171323E-01  4.66708446E-01  4.66717000E-01  4.95303647E-01  6.94593735E-01
  7.97130095E-01  1.05183765E+00  1.05188273E+00  1.06892607E+00  1.06897921E+00
  1.14002385E+00  1.31824000E+00  1.34028298E+00  1.34034929E+00  1.37731216E+00
  1.37736066E+00  1.40568238E+00  1.60566918E+00  1.60570514E+00  1.68560481E+00
  1.79909927E+00  1.79919966E+00  1.82485167E+00  1.84714008E+00  1.84717303E+00
  2.00002362E+00  2.00037756E+00  2.00917468E+00  2.05703810E+00  2.17813134E+00
  2.24280162E+00  2.24296329E+00  2.62116040E+00  2.66864483E+00  2.66865749E+00
  2.98705229E+00  3.01359565E+00  3.01382803E+00  4.09131981E+00  4.09137074E+00
  4.27768417E+00  4.95410701E+00
Alpha MO coefficients                      R   N=        3844
  3.31017607E-05 -4.92438142E-05  1.26160651E-05  3.04656818E-04  6.13260082E-04
  3.07820933E-06  3.18380990E-04 -7.10738566E-04 -4.92086844E-04 -2.47316116E-06
 -1.50190029E-04  4.45976578E-04  1.11020721E-04  7.84574666E-05  2.15808264E-06
  1.79063740E-04  8.98286517E-07  3.99439117E-03  1.73150030E-04  2.22346265E-06
 -1.03673844E-05 -4.89615907E-06 -8.93724301E-05 -8.55037498E-05  9.51417896E-05
  2.55858557E-05 -9.92321129E-05 -2.86639288E-05  2.22901777E-05  8.03106335E-05
 -5.05080333E-06 -2.67841166E-05  4.41227730E-03  1.81384991E-04  2.25410310E-06
  1.06445484E-05 -5.00781930E-06 -8.29259259E-05 -8.45404286E-05 -9.61531613E-05
  2.56411964E-05 -1.01155295E-04 -3.36264349E-05  1.88774202E-05 -8.12602359E-05
 -5.30970543E-06  2.67947136E-05  9.92970955E-01  1.96573669E-02 -7.00673434E-04
 -3.77844402E-06 -2.68951717E-04  1.51850661E-02  3.89053409E-04  2.10957471E-06
  1.46125387E-04 -8.42779557E-03 -7.99372602E-03 -8.05392829E-03 -2.73403710E-06
 -1.84672961E-04 -9.88010894E-07  3.39618272E-05 -5.05562887E-05  1.29482289E-05
  3.12734509E-04 -3.20534353E-04 -5.12990971E-04  3.26513471E-04 -7.30229936E-04
  2.57217427E-04  4.11334588E-04 -1.54151353E-04  1.96375136E-04  3.75582343E-04
  8.04213826E-05  1.60258915E-04 -9.34723533E-05 -1.49640818E-04  4.04942834E-02
  8.94363664E-04  2.09143397E-05 -2.90627352E-05 -1.47118541E-05  4.71670706E-04
 -4.71909212E-05  1.32334443E-04  3.05890152E-05 -2.83864255E-04 -4.47640794E-04
 -2.74615406E-04  1.40657259E-05  2.92312455E-05 -1.43575396E-05  9.92152616E-01
  1.96436639E-02  3.47315367E-04  6.08158033E-04 -2.68483386E-04  1.51688778E-02
 -1.93350522E-04 -3.41069175E-04  1.46512465E-04 -8.09153341E-03 -8.31852601E-03
 -8.04576188E-03 -2.15068645E-04  9.23238440E-05  1.60157483E-04 -4.55786994E-03
  7.11695933E-06 -4.30627607E-06  3.16723303E-06 -2.72248797E-06 -2.25221307E-04
  1.26119650E-04  2.55186584E-05  2.53014465E-05 -3.66201283E-05  4.78991293E-05
  9.35454944E-05 -7.26237967E-05 -1.98813001E-05  1.70543057E-05  3.13169828E-05
 -4.66003280E-05  1.19356259E-05  2.88266495E-04 -3.00658454E-04  5.53146678E-04
  3.01015802E-04 -6.73258414E-04  2.41253055E-04 -4.43517183E-04 -1.42105143E-04
  1.84188506E-04  3.43196379E-04  7.41569067E-05 -1.76117694E-04 -8.76871368E-05
  1.61372629E-04  9.92154585E-01  1.96361750E-02  3.53297524E-04 -6.04017281E-04
 -2.68161901E-04  1.51808456E-02 -1.93834521E-04  3.29308975E-04  1.44501740E-04
 -8.09940205E-03 -8.30563858E-03 -8.05013412E-03  2.17447954E-04  9.19592419E-05
 -1.58516866E-04 -4.04989943E-02 -7.08881596E-04 -7.73019361E-06 -2.03411674E-05
  7.19095677E-06 -7.67157149E-04 -3.01381168E-05 -1.05427193E-04  1.87213997E-05
  3.77047143E-04  2.30828058E-04  3.82389893E-04  5.48727080E-06  2.16242858E-05
  1.63734324E-06 -3.79855098E-03  1.45081079E-05 -4.21870676E-06 -3.48344692E-06
 -2.61739636E-06 -2.01386551E-04  1.16647328E-04 -2.63292647E-05  2.33718755E-05
 -3.85064539E-05  4.22516670E-05  8.29469498E-05  7.77307161E-05 -1.82121407E-05
 -1.87220047E-05 -2.00801672E-04  2.42061635E-03  9.93117535E-01  4.63830587E-02
 -7.94919167E-08 -8.13487322E-08  1.52608125E-03 -6.75668506E-03  1.09828083E-06
 -5.32326127E-08  1.44560501E-03 -7.93513708E-03 -7.93623257E-03 -8.56207779E-03
  5.30832664E-08  4.54210055E-07 -3.52889746E-08 -5.54732973E-05  1.27925303E-04
  4.69506583E-05 -8.01667290E-05 -3.00497779E-06 -2.26742527E-04 -6.75333785E-04
  1.15408518E-03  2.46425176E-04 -4.55614949E-05 -5.27494083E-04  8.65725646E-05
  4.94843114E-04  1.49582549E-04 -2.55729908E-04 -5.54675914E-05  1.28001380E-04
  4.60891419E-05  8.06709198E-05 -3.00818727E-06 -2.27062014E-04 -6.62955018E-04
 -1.16139606E-03  2.46491297E-04 -3.63506306E-05 -5.36628020E-04  8.66184428E-05
 -4.88758271E-04  1.46836923E-04  2.57347576E-04 -5.52878524E-05  1.29103700E-04
 -9.29935182E-05 -5.02559185E-07 -3.07013952E-06 -2.30993968E-04  1.33828981E-03
  7.22426927E-06  2.47535537E-04 -7.77575328E-04  2.05928407E-04  8.71518131E-05
 -6.12203552E-06 -2.96988477E-04 -1.60170528E-06  2.46012121E-02 -1.29629756E-03
 -1.02261803E-01  1.98990467E-01 -1.48705292E-05 -9.66419991E-06  6.19797202E-02
  2.42282945E-02  8.90112516E-06 -3.63385278E-07 -1.50756405E-02 -1.81195766E-04
 -1.98566708E-04 -1.20244536E-02  2.03948344E-06  5.29529655E-06 -1.50756897E-06
 -1.18824856E-01  2.61016287E-01  3.46717836E-02 -5.92799985E-02 -2.07606439E-02
  2.51075839E-01  2.11117954E-02 -3.60912729E-02 -1.07971965E-02  5.80169741E-03
  1.35964956E-02  3.62061949E-03 -8.00723661E-03 -2.98666848E-03  5.10524198E-03
 -1.18842963E-01  2.61057983E-01  3.40371717E-02  5.96570674E-02 -2.07652029E-02
  2.51110066E-01  2.07239817E-02  3.63184900E-02 -1.07989021E-02  5.65473955E-03
  1.37463151E-02  3.62195400E-03  7.90891723E-03 -2.93189099E-03 -5.13752360E-03
 -1.18880672E-01  2.61146246E-01 -6.86839543E-02 -3.70980313E-04 -2.08028449E-02
  2.51185963E-01 -4.18178361E-02 -2.25796494E-04 -1.08195154E-02  1.76561836E-02
  1.74826685E-03  3.62800831E-03  9.91115300E-05  5.92350102E-03  3.19844324E-05
 -1.26345304E-05 -6.25437546E-06  1.49717470E-05 -2.91557148E-05  1.50929071E-01
  8.04001046E-03  4.12894410E-05 -1.01788934E-05  7.74084850E-03  4.12402789E-04
 -4.53801747E-06  2.05573334E-02 -2.05703072E-02  1.00107213E-05 -8.81792245E-04
  1.90702913E-02  1.01526749E-03  8.54497389E-02 -1.93820753E-01 -5.19577863E-03
  3.31322981E-02  1.39581341E-02 -1.74372029E-01 -1.19980588E-03  1.41684181E-02
  6.23332397E-03 -4.09561311E-03 -8.12405565E-03 -4.65015712E-03  1.58640879E-03
  6.79862187E-04 -2.02930717E-03  1.00897575E-01 -2.28860401E-01 -8.20833031E-03
 -3.77611039E-02  1.64817111E-02 -2.05895745E-01 -2.48310668E-03 -1.60321392E-02
  7.35973360E-03 -5.02024756E-03 -9.40842076E-03 -5.49069944E-03 -1.96275527E-03
  8.65950132E-04  2.35357411E-03 -1.86298452E-01  4.22572619E-01 -6.80372297E-02
  2.91579177E-04 -3.04557311E-02  3.80184071E-01 -2.79734086E-02  1.78126966E-04
 -1.35947345E-02  1.80788187E-02  8.55670483E-03  1.01396446E-02 -7.98605185E-06
  4.56888092E-03  1.03380435E-06  2.03218332E-06  5.31617344E-07 -5.10283628E-06
  1.00770410E-05 -8.03716478E-03  1.50900540E-01 -7.47461485E-07  2.07440767E-06
 -4.12497672E-04  7.74386117E-03 -3.07023472E-07 -7.61849405E-04  7.62566513E-04
 -1.02997792E-06 -2.37665392E-02 -1.01516140E-03  1.90484731E-02 -1.65824889E-01
  3.76127413E-01  3.60337107E-02 -4.90870070E-02 -2.70752948E-02  3.38417352E-01
  1.53013162E-02 -1.99052523E-02 -1.20895609E-02  1.02636711E-02  1.34471608E-02
  9.01989608E-03 -4.58434638E-03 -2.24594679E-03  3.39288757E-03  1.56890481E-01
 -3.55863590E-01 -3.48765735E-02 -4.60701493E-02  2.56176038E-02 -3.20181423E-01
 -1.49151000E-02 -1.86178376E-02  1.14379394E-02 -9.74323568E-03 -1.26899533E-02
 -8.53434851E-03 -4.37530475E-03  2.13610848E-03  3.20616658E-03  8.91106711E-03
 -2.02130399E-02  3.17845958E-03  1.37767109E-02  1.45655294E-03 -1.81848285E-02
  1.29966276E-03  6.88416894E-03  6.50124432E-04 -8.51359722E-04 -4.22615402E-04
 -4.85147070E-04 -1.40900659E-03 -2.15740606E-04 -4.94251323E-04  1.52641522E-01
  3.31740046E-02 -1.58891364E-01  3.78964148E-01  2.46275533E-05 -4.27053043E-06
 -8.51285851E-02  1.91455576E-01  2.65604526E-05 -3.75120571E-07 -7.17990059E-02
 -1.25563662E-02 -1.25627383E-02  7.03352880E-04  4.51679111E-07  3.59389715E-06
 -1.95952327E-07  6.41474232E-02 -1.40082794E-01  9.53943130E-02 -1.63058336E-01
 -1.01963926E-01 -2.00726288E-01  5.90731187E-02 -1.00969950E-01 -5.53559801E-02
  1.48990507E-03  1.04842061E-02  1.94125593E-03 -9.23962250E-03 -4.76809654E-03
  8.15025572E-03  6.41499953E-02 -1.40088146E-01  9.36417174E-02  1.64085525E-01
 -1.01973705E-01 -2.00736067E-01  5.79871740E-02  1.01604942E-01 -5.53611918E-02
  1.31891491E-03  1.06554605E-02  1.94160656E-03  9.12594017E-03 -4.68050385E-03
 -8.20156959E-03  6.41460971E-02 -1.40082295E-01 -1.88919080E-01 -1.01938935E-03
 -1.02073149E-01 -2.00725057E-01 -1.16987803E-01 -6.31166208E-04 -5.54189118E-02
  1.51592314E-02 -3.19143843E-03  1.94669678E-03  1.14309514E-04  9.45052852E-03
  5.10138972E-05 -1.71618271E-01 -9.48411486E-02  2.59074474E-03  9.84315429E-03
  2.07338817E-04 -1.96338151E-05  3.91527191E-01 -4.85615934E-02  4.21938176E-05
 -2.90793602E-06  1.25345515E-01  3.46299669E-03  3.43931847E-03 -5.00802670E-03
  1.02627399E-06  1.10317504E-05 -2.02621768E-06  2.10148188E-02 -3.79179598E-02
  1.04996706E-01 -1.79351697E-01  1.47833590E-01 -8.69778994E-02  6.19018544E-02
 -1.05730796E-01  9.39856104E-02  5.60927860E-03  1.26814617E-02 -4.83165228E-03
 -7.27202553E-03  4.20228237E-03 -7.18929573E-03  2.10215037E-02 -3.79299278E-02
  1.03097060E-01  1.80511914E-01  1.47825985E-01 -8.70075421E-02  6.07817385E-02
  1.06413082E-01  9.39825228E-02  5.47648472E-03  1.28181442E-02 -4.83143872E-03
  7.18397110E-03  4.12420146E-03  7.23370221E-03  2.10972274E-02 -3.80619948E-02
 -2.08432072E-01 -1.13439288E-03  1.47528410E-01 -8.73527749E-02 -1.22862198E-01
 -6.69327240E-04  9.38179514E-02  1.64079818E-02  1.93593970E-03 -4.82425777E-03
  9.07751188E-05 -8.30463471E-03 -4.45236309E-05 -1.11753486E-04 -6.65536310E-05
  4.95670485E-06  7.18631998E-06 -3.52095812E-01 -1.32148384E-02  2.25574390E-04
 -5.92974529E-05 -8.98243301E-02 -3.37031006E-03  9.09286314E-05 -1.12047240E-02
  1.12239516E-02 -8.02765979E-06  2.78112547E-04 -2.00851700E-02 -7.53575245E-04
  2.65582683E-02 -4.56162926E-02 -6.85772813E-02 -2.37076654E-01 -8.46860615E-02
 -1.21854323E-01 -4.91690806E-02 -1.37990279E-01 -4.67591298E-02 -1.96013967E-03
  1.62751249E-02  5.25929008E-03  2.28398373E-03  1.83822140E-03  5.81980205E-03
  2.96866650E-02 -5.09893403E-02 -5.55487287E-02  2.50494975E-01 -9.46881141E-02
 -1.36209891E-01 -4.16065423E-02  1.45078424E-01 -5.22828048E-02 -9.57619777E-04
  1.69583836E-02  5.87955121E-03 -1.99837574E-03  1.51821400E-03 -6.13828303E-03
 -5.61702082E-02  9.64715760E-02  3.59429392E-01 -4.58042578E-03  1.79893442E-01
  2.57752106E-01  1.99317987E-01 -3.01048194E-03  9.93605107E-02 -2.09251571E-02
 -9.33572871E-03 -1.11510600E-02  3.02953848E-04 -8.70006946E-03  1.18182570E-04
 -1.01879650E-05 -5.95718494E-06 -2.23062684E-06  6.65401522E-06 -1.32127369E-02
  3.52090737E-01  2.76342145E-05  6.64106987E-07 -3.37342632E-03  8.98742879E-02
  1.06076496E-05 -2.38326405E-04  2.38990289E-04 -5.69718608E-08 -1.29654887E-02
 -7.53581075E-04  2.00746471E-02  4.95650889E-02 -8.51277341E-02  2.42895150E-01
 -2.25458332E-01 -1.58317558E-01 -2.27441603E-01  1.40663544E-01 -1.21544838E-01
 -8.74235894E-02  1.50145238E-02  1.17032523E-02  9.82311945E-03 -7.85257174E-03
 -5.95723169E-03  5.38531451E-03 -4.77530901E-02  8.20145896E-02 -2.44526584E-01
 -2.12377584E-01  1.52581200E-01  2.19131655E-01 -1.42312676E-01 -1.13948505E-01
  8.42580368E-02 -1.49597887E-02 -1.07802777E-02 -9.46581218E-03 -8.03595020E-03
  6.00980007E-03  5.06634847E-03 -1.80260428E-03  3.09551374E-03  1.04361563E-02
  2.03034749E-01  5.78751467E-03  8.27347286E-03  5.70759593E-03  1.27239098E-01
  3.19716839E-03 -5.61856846E-04 -4.09163364E-04 -3.58429946E-04 -1.16814007E-02
 -2.52171226E-04 -5.13945849E-03  6.48721019E-05  8.96085938E-05 -1.15322079E-05
  2.06281834E-05 -6.44527892E-02 -2.61688647E-04 -6.05762659E-05  5.17915897E-05
  3.83186039E-02  1.57896564E-04  7.89110269E-05 -3.45909741E-02  3.45736872E-02
  1.65105745E-05 -4.79621784E-04  1.25856224E-02  5.31549208E-05  2.08090777E-03
 -4.35074985E-04  3.31899266E-01  1.48716847E-01 -1.65282055E-01 -8.25641842E-03
  2.31539829E-01  1.09132315E-01 -1.16576987E-01  1.04466315E-02 -1.03793190E-02
  5.62980914E-03 -8.32507728E-03 -5.92138505E-03  3.45324823E-03  2.07097317E-03
 -4.31539813E-04  3.33858866E-01 -1.45584833E-01 -1.64593369E-01 -8.21737340E-03
  2.32976746E-01 -1.06930427E-01 -1.16090826E-01  1.03072282E-02 -1.02420637E-02
  5.60639414E-03  8.58696187E-03 -5.87629550E-03 -3.49193564E-03 -4.14651628E-03
  8.84068586E-04  7.80238635E-02 -7.68764978E-05  3.30350006E-01  1.63568449E-02
  4.51793362E-02 -1.07066316E-04  2.32968058E-01 -2.39286812E-03  2.29835469E-03
 -1.12357183E-02 -9.28158367E-06 -1.19182133E-02 -5.98314870E-05 -7.28884057E-06
 -6.52572580E-06  1.27484832E-06 -2.52024264E-06  2.74328789E-04 -6.45211308E-02
  7.97625864E-06 -5.85764597E-06 -1.60477214E-04  3.83683184E-02 -2.81805666E-08
 -4.13559218E-04  4.14695152E-04 -1.39976322E-06  3.99340445E-02 -5.15214275E-05
  1.26004686E-02 -3.59606373E-03  7.71145217E-04  1.46199646E-01  1.64113143E-01
  2.85779889E-01  1.42017025E-02  1.07394196E-01  1.08360161E-01  2.01553712E-01
  7.30232872E-03 -7.40671710E-03 -9.71818927E-03 -2.07401564E-03  3.53497246E-03
 -9.88733522E-03  3.59991217E-03 -7.70200465E-04 -1.47152758E-01  1.62158631E-01
 -2.86205155E-01 -1.42153788E-02 -1.07991476E-01  1.06925522E-01 -2.01853051E-01
 -7.23715386E-03  7.33996179E-03  9.73221862E-03 -2.23568092E-03 -3.44280212E-03
 -9.93361301E-03 -4.71698570E-06  8.46976617E-07 -2.17669320E-03  4.18026094E-01
  4.05882295E-04  1.89966732E-05 -1.54619224E-03  2.94739309E-01  2.86217365E-04
  1.55156547E-04 -1.54272441E-04 -1.39122775E-05 -1.68238921E-02  6.47740168E-06
 -3.90081825E-03  1.09786172E-04  1.25738565E-04 -5.50981265E-06  1.28500433E-06
  3.56493118E-02  1.35216017E-03 -1.01324012E-04  4.72306935E-05 -1.17601015E-01
 -4.45884475E-03 -4.23611590E-06  1.30842812E-02 -1.31104230E-02  3.20387295E-05
 -3.29804248E-04  2.46914073E-02  9.35650601E-04  1.55848111E-03 -4.54798979E-04
 -2.61297825E-01  3.33373640E-02 -1.77163852E-01 -2.80089050E-02 -1.67656053E-01
  3.47832670E-02 -1.18304810E-01 -1.89644106E-03 -1.33412454E-03  6.36333311E-03
  6.39982510E-03  1.84495530E-03  5.32334487E-03  1.74480841E-03 -5.11506065E-04
 -2.63795551E-01 -5.65942195E-02 -1.98306781E-01 -3.13483465E-02 -1.70015237E-01
 -5.07774547E-02 -1.32423563E-01 -1.59253016E-03 -2.02451786E-03  7.12195997E-03
 -6.89898602E-03  1.54942594E-03 -5.60517290E-03 -3.30226717E-03  9.89211783E-04
 -3.40633540E-01 -9.57737118E-03  3.75577761E-01  5.92553378E-02 -2.43029473E-01
 -6.02985180E-03  2.50802876E-01  1.33759803E-02 -6.51120781E-03 -1.34766088E-02
  2.51338304E-04 -7.75766105E-03  1.16716707E-04 -1.27309266E-05 -1.27788606E-05
  9.15470948E-07 -1.07683657E-06 -1.35103829E-03  3.56584589E-02  1.38485426E-05
 -3.36375998E-06  4.45515199E-03 -1.17544311E-01  3.16186249E-06 -2.82644745E-04
  2.85337778E-04 -2.69628373E-06 -1.51227774E-02 -9.36092665E-04  2.46827513E-02
 -2.91393754E-03  8.81334283E-04  5.56449714E-02 -3.15535380E-01  3.31439436E-01
  5.22633517E-02  4.97466465E-02 -2.19267543E-01  2.21351169E-01 -2.64067190E-03
  8.70456585E-03 -1.18837425E-02 -7.94269000E-03  5.43251583E-03 -4.76346870E-03
  2.80719371E-03 -8.51269843E-04 -3.52002271E-02 -3.13081846E-01 -3.19226654E-01
 -5.03359066E-02 -3.64280662E-02 -2.16934970E-01 -2.13195384E-01  2.89646066E-03
 -8.73677152E-03  1.14450835E-02 -7.36763276E-03 -5.49300719E-03 -4.46676026E-03
  1.07474642E-04 -3.25840977E-05  1.23504809E-02 -2.36886145E-01 -1.22267393E-02
 -1.92556717E-03  8.67870863E-03 -1.44327975E-01 -8.16588887E-03 -4.71211424E-04
  2.47796283E-04  4.38181292E-04  3.87683857E-03  2.26398353E-04  4.86158989E-03
  6.11900725E-08  6.08066172E-08 -2.46514539E-08 -1.09510348E-07  2.13729080E-06
  5.75107411E-05 -6.46860686E-08  7.87810896E-07 -9.80799104E-06 -1.82169843E-04
  2.94239429E-07  1.80650035E-06 -1.81016327E-06 -4.76502894E-09 -2.90808255E-05
  6.52944063E-07  1.77839673E-05 -9.44891273E-06  2.45100590E-05 -3.50828291E-01
 -2.05574681E-01  8.45347396E-05  7.44859093E-05 -2.38780613E-01 -1.39933609E-01
  4.53451030E-05 -8.57558130E-03  8.58288980E-03  9.62658773E-08  5.55273439E-03
  5.93515387E-03  3.47417161E-03  1.00428188E-05 -2.54182858E-05  3.52960468E-01
 -2.01775597E-01 -9.18210099E-05 -8.08828169E-05  2.40231907E-01 -1.37349021E-01
 -4.92435226E-05  8.46947309E-03 -8.47666825E-03  2.04454720E-07  5.76311556E-03
 -5.97177352E-03  3.40993410E-03 -5.08866509E-07  1.31929468E-06 -2.20572850E-03
  4.05846886E-01  7.62144429E-06  4.64258014E-06 -1.50199038E-03  2.76254676E-01
  4.11622415E-06  1.06718660E-04 -1.06304777E-04 -6.39365356E-09 -1.13335369E-02
  3.70701876E-05 -6.87112444E-03  2.49150358E-01  2.81667745E-01 -3.08946771E-02