CH2CCl3                                                                 
SP        RB3LYP                                                      6-31G(d)            
Number of atoms                            I                8
Info1-9                                    I   N=           9
          17          17           0           0           0         110
           1          18        -502
Full Title                                 C   N=           1
CH2CCl3     
Route                                      C   N=           2
# nosymm b3lyp/6-31G*   
Charge                                     I                0
Multiplicity                               I                1
Number of electrons                        I               66
Number of alpha electrons                  I               33
Number of beta electrons                   I               33
Number of basis functions                  I               93
Number of independent functions            I               93
Number of point charges in /Mol/           I                0
Number of translation vectors              I                0
Atomic numbers                             I   N=           8
           1           6           6           1           1          17
          17          17
Nuclear charges                            R   N=           8
  1.00000000E+00  6.00000000E+00  6.00000000E+00  1.00000000E+00  1.00000000E+00
  1.70000000E+01  1.70000000E+01  1.70000000E+01
Current cartesian coordinates              R   N=          24
  0.00000000E+00  0.00000000E+00  0.00000000E+00  0.00000000E+00  0.00000000E+00
  2.05709917E+00  2.46231314E-02  2.69626123E+00  3.00394644E+00  1.67134937E+00
 -9.81315879E-01  2.74637677E+00 -1.68899942E+00 -9.50626727E-01  2.74637677E+00
  2.79530178E+00  4.29706713E+00  1.89027415E+00  2.50577684E-02  2.73981942E+00
  6.39328363E+00 -2.71631123E+00  4.34742833E+00  1.89031194E+00
Number of symbols in /Mol/                 I                0
Force Field                                I                0
Atom Types                                 C   N=           8
                                                            
                                    
Int Atom Types                             I   N=           8
           0           0           0           0           0           0
           0           0
MM charges                                 R   N=           8
  0.00000000E+00  0.00000000E+00  0.00000000E+00  0.00000000E+00  0.00000000E+00
  0.00000000E+00  0.00000000E+00  0.00000000E+00
Integer atomic weights                     I   N=           8
           1          12          12           1           1          35
          35          35
Real atomic weights                        R   N=           8
  1.00782504E+00  1.20000000E+01  1.20000000E+01  1.00782504E+00  1.00782504E+00
  3.49688527E+01  3.49688527E+01  3.49688527E+01
Atom fragment info                         I   N=           8
           0           0           0           0           0           0
           0           0
Atom residue num                           I   N=           8
           0           0           0           0           0           0
           0           0
Nuclear spins                              I   N=           8
           1           0           0           1           1           3
           3           3
Nuclear ZEff                               R   N=           8
 -1.00000000E+00 -3.60000000E+00 -3.60000000E+00 -1.00000000E+00 -1.00000000E+00
 -1.42400000E+01 -1.42400000E+01 -1.42400000E+01
Nuclear ZNuc                               R   N=           8
  1.00000000E+00  6.00000000E+00  6.00000000E+00  1.00000000E+00  1.00000000E+00
  1.70000000E+01  1.70000000E+01  1.70000000E+01
Nuclear QMom                               R   N=           8
  0.00000000E+00  0.00000000E+00  0.00000000E+00  0.00000000E+00  0.00000000E+00
 -8.16500000E+00 -8.16500000E+00 -8.16500000E+00
Nuclear GFac                               R   N=           8
  2.79284600E+00  0.00000000E+00  0.00000000E+00  2.79284600E+00  2.79284600E+00
  8.21874000E-01  8.21874000E-01  8.21874000E-01
MicOpt                                     I   N=           8
          -1          -1          -1          -1          -1          -1
          -1          -1
Number of residues                         I                0
Number of secondary structures             I                0
Number of contracted shells                I               29
Number of primitive shells                 I               85
Pure/Cartesian d shells                    I                1
Pure/Cartesian f shells                    I                0
Highest angular momentum                   I                2
Largest degree of contraction              I                6
Shell types                                I   N=          29
           0           0           0          -1          -1           2
           0          -1          -1           2           0           0
           0           0           0          -1          -1          -1
           2           0          -1          -1          -1           2
           0          -1          -1          -1           2
Number of primitives per shell             I   N=          29
           3           1           6           3           1           1
           6           3           1           1           3           1
           3           1           6           6           3           1
           1           6           6           3           1           1
           6           6           3           1           1
Shell to atom map                          I   N=          29
           1           1           2           2           2           2
           3           3           3           3           4           4
           5           5           6           6           6           6
           6           7           7           7           7           7
           8           8           8           8           8
Primitive exponents                        R   N=          85
  1.87311370E+01  2.82539436E+00  6.40121692E-01  1.61277759E-01  3.04752488E+03
  4.57369518E+02  1.03948685E+02  2.92101553E+01  9.28666296E+00  3.16392696E+00
  7.86827235E+00  1.88128854E+00  5.44249258E-01  1.68714478E-01  8.00000000E-01
  3.04752488E+03  4.57369518E+02  1.03948685E+02  2.92101553E+01  9.28666296E+00
  3.16392696E+00  7.86827235E+00  1.88128854E+00  5.44249258E-01  1.68714478E-01
  8.00000000E-01  1.87311370E+01  2.82539436E+00  6.40121692E-01  1.61277759E-01
  1.87311370E+01  2.82539436E+00  6.40121692E-01  1.61277759E-01  2.51801000E+04
  3.78035000E+03  8.60474000E+02  2.42145000E+02  7.73349000E+01  2.62470000E+01
  4.91765000E+02  1.16984000E+02  3.74153000E+01  1.37834000E+01  5.45215000E+00
  2.22588000E+00  3.18649000E+00  1.14427000E+00  4.20377000E-01  1.42657000E-01
  7.50000000E-01  2.51801000E+04  3.78035000E+03  8.60474000E+02  2.42145000E+02
  7.73349000E+01  2.62470000E+01  4.91765000E+02  1.16984000E+02  3.74153000E+01
  1.37834000E+01  5.45215000E+00  2.22588000E+00  3.18649000E+00  1.14427000E+00
  4.20377000E-01  1.42657000E-01  7.50000000E-01  2.51801000E+04  3.78035000E+03
  8.60474000E+02  2.42145000E+02  7.73349000E+01  2.62470000E+01  4.91765000E+02
  1.16984000E+02  3.74153000E+01  1.37834000E+01  5.45215000E+00  2.22588000E+00
  3.18649000E+00  1.14427000E+00  4.20377000E-01  1.42657000E-01  7.50000000E-01
Contraction coefficients                   R   N=          85
  3.34946043E-02  2.34726953E-01  8.13757326E-01  1.00000000E+00  1.83473713E-03
  1.40373228E-02  6.88426223E-02  2.32184443E-01  4.67941348E-01  3.62311985E-01
 -1.19332420E-01 -1.60854152E-01  1.14345644E+00  1.00000000E+00  1.00000000E+00
  1.83473713E-03  1.40373228E-02  6.88426223E-02  2.32184443E-01  4.67941348E-01
  3.62311985E-01 -1.19332420E-01 -1.60854152E-01  1.14345644E+00  1.00000000E+00
  1.00000000E+00  3.34946043E-02  2.34726953E-01  8.13757326E-01  1.00000000E+00
  3.34946043E-02  2.34726953E-01  8.13757326E-01  1.00000000E+00  1.83295985E-03
  1.40341988E-02  6.90973943E-02  2.37451980E-01  4.83033960E-01  3.39855972E-01
 -2.29739142E-03 -3.07137189E-02 -1.12528069E-01  4.50163278E-02  5.89353363E-01
  4.65206287E-01 -2.51828028E-01  6.15892514E-02  1.06018433E+00  1.00000000E+00
  1.00000000E+00  1.83295985E-03  1.40341988E-02  6.90973943E-02  2.37451980E-01
  4.83033960E-01  3.39855972E-01 -2.29739142E-03 -3.07137189E-02 -1.12528069E-01
  4.50163278E-02  5.89353363E-01  4.65206287E-01 -2.51828028E-01  6.15892514E-02
  1.06018433E+00  1.00000000E+00  1.00000000E+00  1.83295985E-03  1.40341988E-02
  6.90973943E-02  2.37451980E-01  4.83033960E-01  3.39855972E-01 -2.29739142E-03
 -3.07137189E-02 -1.12528069E-01  4.50163278E-02  5.89353363E-01  4.65206287E-01
 -2.51828028E-01  6.15892514E-02  1.06018433E+00  1.00000000E+00  1.00000000E+00
P(S=P) Contraction coefficients            R   N=          85
  0.00000000E+00  0.00000000E+00  0.00000000E+00  0.00000000E+00  0.00000000E+00
  0.00000000E+00  0.00000000E+00  0.00000000E+00  0.00000000E+00  0.00000000E+00
  6.89990666E-02  3.16423961E-01  7.44308291E-01  1.00000000E+00  0.00000000E+00
  0.00000000E+00  0.00000000E+00  0.00000000E+00  0.00000000E+00  0.00000000E+00
  0.00000000E+00  6.89990666E-02  3.16423961E-01  7.44308291E-01  1.00000000E+00
  0.00000000E+00  0.00000000E+00  0.00000000E+00  0.00000000E+00  0.00000000E+00
  0.00000000E+00  0.00000000E+00  0.00000000E+00  0.00000000E+00  0.00000000E+00
  0.00000000E+00  0.00000000E+00  0.00000000E+00  0.00000000E+00  0.00000000E+00
  3.98940088E-03  3.03177067E-02  1.29880029E-01  3.27951072E-01  4.53527100E-01
  2.52154056E-01 -1.42993147E-02  3.23572333E-01  7.43507765E-01  1.00000000E+00
  0.00000000E+00  0.00000000E+00  0.00000000E+00  0.00000000E+00  0.00000000E+00
  0.00000000E+00  0.00000000E+00  3.98940088E-03  3.03177067E-02  1.29880029E-01
  3.27951072E-01  4.53527100E-01  2.52154056E-01 -1.42993147E-02  3.23572333E-01
  7.43507765E-01  1.00000000E+00  0.00000000E+00  0.00000000E+00  0.00000000E+00
  0.00000000E+00  0.00000000E+00  0.00000000E+00  0.00000000E+00  3.98940088E-03
  3.03177067E-02  1.29880029E-01  3.27951072E-01  4.53527100E-01  2.52154056E-01
 -1.42993147E-02  3.23572333E-01  7.43507765E-01  1.00000000E+00  0.00000000E+00
Coordinates of each shell                  R   N=          87
  0.00000000E+00  0.00000000E+00  0.00000000E+00  0.00000000E+00  0.00000000E+00
  0.00000000E+00  0.00000000E+00  0.00000000E+00  2.05709917E+00  0.00000000E+00
  0.00000000E+00  2.05709917E+00  0.00000000E+00  0.00000000E+00  2.05709917E+00
  0.00000000E+00  0.00000000E+00  2.05709917E+00  2.46231314E-02  2.69626123E+00
  3.00394644E+00  2.46231314E-02  2.69626123E+00  3.00394644E+00  2.46231314E-02
  2.69626123E+00  3.00394644E+00  2.46231314E-02  2.69626123E+00  3.00394644E+00
  1.67134937E+00 -9.81315879E-01  2.74637677E+00  1.67134937E+00 -9.81315879E-01
  2.74637677E+00 -1.68899942E+00 -9.50626727E-01  2.74637677E+00 -1.68899942E+00
 -9.50626727E-01  2.74637677E+00  2.79530178E+00  4.29706713E+00  1.89027415E+00
  2.79530178E+00  4.29706713E+00  1.89027415E+00  2.79530178E+00  4.29706713E+00
  1.89027415E+00  2.79530178E+00  4.29706713E+00  1.89027415E+00  2.79530178E+00
  4.29706713E+00  1.89027415E+00  2.50577684E-02  2.73981942E+00  6.39328363E+00
  2.50577684E-02  2.73981942E+00  6.39328363E+00  2.50577684E-02  2.73981942E+00
  6.39328363E+00  2.50577684E-02  2.73981942E+00  6.39328363E+00  2.50577684E-02
  2.73981942E+00  6.39328363E+00 -2.71631123E+00  4.34742833E+00  1.89031194E+00
 -2.71631123E+00  4.34742833E+00  1.89031194E+00 -2.71631123E+00  4.34742833E+00
  1.89031194E+00 -2.71631123E+00  4.34742833E+00  1.89031194E+00 -2.71631123E+00
  4.34742833E+00  1.89031194E+00
Num ILSW                                   I              100
ILSW                                       I   N=         100
           0           1           0           0           2           0
           0           0           0           0         402          -1
           5           0           0           0           0           0
           0           0           1           0           0           0
           1           1           0           0           0           0
           0           0      100000           0          -1           0
           0           0           0           0           0           0
           0           0           0           1           0           0
           0 -2000000000           1           0           0           0
           0           0           4          52           0           0
           0           0           5           0           0           0
           0           0           0           0           0           1
           0           0           0           0           0           0
           0           0           0           0           0           0
           0           0           0           0           0           0
           0           0           0           0           0           0
           0           0           0           0
Num RLSW                                   I               52
RLSW                                       R   N=          52
  8.00000000E-01  7.20000000E-01  1.00000000E+00  8.10000000E-01  2.00000000E-01
  0.00000000E+00  0.00000000E+00  1.00000000E+00  0.00000000E+00  0.00000000E+00
  0.00000000E+00  0.00000000E+00  1.00000000E+00  0.00000000E+00  0.00000000E+00
  0.00000000E+00  0.00000000E+00  1.00000000E+00  0.00000000E+00  0.00000000E+00
  0.00000000E+00  0.00000000E+00  1.00000000E+00  0.00000000E+00  0.00000000E+00
  0.00000000E+00  0.00000000E+00  1.00000000E+00  0.00000000E+00  0.00000000E+00
  0.00000000E+00  0.00000000E+00  1.00000000E+00  0.00000000E+00  0.00000000E+00
  0.00000000E+00  0.00000000E+00  0.00000000E+00  1.00000000E+00  1.00000000E+00
  0.00000000E+00  1.00000000E+00  0.00000000E+00  0.00000000E+00  0.00000000E+00
  0.00000000E+00  0.00000000E+00  0.00000000E+00  0.00000000E+00  0.00000000E+00
  0.00000000E+00  0.00000000E+00
MxBond                                     I                4
NBond                                      I   N=           8
           1           4           4           1           1           1
           1           1
IBond                                      I   N=          32
           2           0           0           0           1           3
           4           5           2           6           7           8
           2           0           0           0           2           0
           0           0           3           0           0           0
           3           0           0           0           3           0
           0           0
RBond                                      R   N=          32
  1.00000000E+00  0.00000000E+00  0.00000000E+00  0.00000000E+00  1.00000000E+00
  1.00000000E+00  1.00000000E+00  1.00000000E+00  1.00000000E+00  1.00000000E+00
  1.00000000E+00  1.00000000E+00  1.00000000E+00  0.00000000E+00  0.00000000E+00
  0.00000000E+00  1.00000000E+00  0.00000000E+00  0.00000000E+00  0.00000000E+00
  1.00000000E+00  0.00000000E+00  0.00000000E+00  0.00000000E+00  1.00000000E+00
  0.00000000E+00  0.00000000E+00  0.00000000E+00  1.00000000E+00  0.00000000E+00
  0.00000000E+00  0.00000000E+00
Virial Ratio                               R      2.003352339233766E+00
SCF Energy                                 R     -1.458598696636748E+03
Total Energy                               R     -1.458598696636748E+03
RMS Density                                R      3.895312321061480E-09
Job Status                                 I                1
Nuclear derivative order                   I                0
External E-field                           R   N=          35
  0.00000000E+00  0.00000000E+00  0.00000000E+00  0.00000000E+00  0.00000000E+00
  0.00000000E+00  0.00000000E+00  0.00000000E+00  0.00000000E+00  0.00000000E+00
  0.00000000E+00  0.00000000E+00  0.00000000E+00  0.00000000E+00  0.00000000E+00
  0.00000000E+00  0.00000000E+00  0.00000000E+00  0.00000000E+00  0.00000000E+00
  0.00000000E+00  0.00000000E+00  0.00000000E+00  0.00000000E+00  0.00000000E+00
  0.00000000E+00  0.00000000E+00  0.00000000E+00  0.00000000E+00  0.00000000E+00
  0.00000000E+00  0.00000000E+00  0.00000000E+00  0.00000000E+00  0.00000000E+00
IOpCl                                      I                0
IROHF                                      I                0
Alpha Orbital Energies                     R   N=          93
 -1.01565685E+02 -1.01565682E+02 -1.01565547E+02 -1.03776912E+01 -1.02209663E+01
 -9.48288372E+00 -9.48287167E+00 -9.48273344E+00 -7.24741658E+00 -7.24739805E+00
 -7.24726256E+00 -7.23657630E+00 -7.23657203E+00 -7.23647999E+00 -7.23647503E+00
 -7.23643094E+00 -7.23633547E+00 -9.51416576E-01 -8.40284798E-01 -8.40118502E-01
 -7.62925516E-01 -6.05649933E-01 -4.98675722E-01 -4.98656972E-01 -4.72791581E-01
 -4.17729870E-01 -4.17712531E-01 -3.53474586E-01 -3.53443264E-01 -3.31095532E-01
 -3.20062720E-01 -3.19994732E-01 -3.07309330E-01 -3.96728740E-02  4.33157715E-03
  4.53339069E-03  1.06468666E-01  1.49650677E-01  1.49656632E-01  1.56806931E-01
  3.05745307E-01  3.52153615E-01  3.52187802E-01  3.99979383E-01  3.99990756E-01
  4.20327612E-01  4.45328873E-01  4.47905954E-01  4.47910369E-01  4.65232468E-01
  4.99861020E-01  4.99953082E-01  5.06081588E-01  5.69452361E-01  5.69484939E-01
  6.16673798E-01  6.54311400E-01  6.54361893E-01  8.26090314E-01  8.26158580E-01
  8.33578641E-01  8.47712427E-01  8.51016176E-01  8.51066777E-01  8.73442055E-01
  8.73450216E-01  8.91747433E-01  8.94750262E-01  8.94881840E-01  9.37403827E-01
  9.76768610E-01  1.05196094E+00  1.05209654E+00  1.09689003E+00  1.09709611E+00
  1.20701740E+00  1.24769068E+00  1.49431657E+00  1.57437501E+00  1.57453749E+00
  1.87664880E+00  1.94595380E+00  1.94605702E+00  2.14415054E+00  2.14437234E+00
  2.27629669E+00  2.27658816E+00  2.54102885E+00  3.98937651E+00  4.22553729E+00
  4.26887772E+00  4.26889590E+00  4.36332642E+00
Alpha MO coefficients                      R   N=        8649
  6.30214783E-06 -3.91569553E-05 -3.17003493E-06  7.64256257E-06  9.79087215E-06
 -1.31239468E-05 -6.92738995E-07  4.11589479E-06  2.78713286E-05 -5.53117526E-05
 -8.24876485E-06 -1.32221248E-05 -2.27147542E-05 -1.23655339E-05  1.13107461E-05
  5.24898262E-06  1.16499683E-06 -1.23275862E-05  1.58910867E-05 -6.00231099E-05
  1.95235090E-05 -1.69579591E-05  2.03310801E-04 -2.18238023E-05  3.12743903E-06
 -7.48018333E-06 -3.84697693E-05 -2.41379227E-05 -2.42109449E-05  1.99663947E-05
 -1.05495199E-05  7.45063304E-06 -6.38194551E-06 -1.03223407E-05  9.08523401E-06
 -4.54247844E-05 -2.17658933E-01 -3.31286020E-03  4.99578214E-06  4.14973689E-06
 -2.79479396E-06  4.63766786E-03  9.65655966E-06  2.78763702E-06 -1.29929387E-06
 -4.41672568E-04  6.56397138E-05  9.82130906E-08 -8.11025840E-07 -1.68116240E-03
 -1.65224820E-03 -1.65278495E-03 -5.33274332E-07  4.68207567E-07 -1.29478429E-06
 -4.21572848E-03 -6.30714316E-05 -1.23213632E-06  3.08407218E-07 -3.50890775E-06
  1.20991808E-04  3.56463677E-06 -5.47163152E-07  1.77940931E-05 -8.25578073E-05
  3.87964577E-05 -1.48103855E-05  3.80420457E-05 -3.78329953E-05 -3.53620267E-05
 -5.12568936E-05  4.20670702E-06 -1.67977143E-05  6.08270919E-06  9.71914373E-01
  1.47990631E-02  4.10843558E-05 -2.60719269E-05  1.64981597E-05 -2.05350156E-02
 -4.38531073E-05  2.76666189E-05 -1.81790265E-05  1.55964132E-03  3.40260487E-05
 -1.12411050E-05  8.50058674E-06  7.36902954E-03  7.36901429E-03  7.37179085E-03
  7.51263173E-06 -4.76546698E-06  3.31746872E-06  9.93913259E-06 -6.17521601E-05
 -4.99896136E-06  1.20497683E-05 -6.47151268E-06 -2.04946222E-05 -1.08958614E-06
  6.50269530E-06 -1.87835145E-05 -8.66436891E-05 -1.29993311E-05 -2.12488695E-05
 -3.54200558E-05 -1.94974915E-05 -7.38462844E-06 -3.30334636E-06  1.94541333E-06
 -1.94390114E-05  2.50455612E-05  3.84420193E-05  2.95754115E-05 -2.67560041E-05
  3.20574198E-04  1.39014932E-05  4.49752109E-06 -1.18011948E-05 -6.13435862E-05
 -3.73643821E-05 -3.81679276E-05 -1.23063472E-05  6.83456124E-06  1.15320221E-05
  7.03313220E-06 -5.50798423E-05 -2.77376355E-06 -3.28212300E-05  9.71906898E-01
  1.47995950E-02 -4.35844898E-05 -2.60323423E-05  1.69220213E-05 -2.05165300E-02
  5.35847395E-05  3.10093802E-05 -2.07099858E-05  1.51608217E-03 -6.89433141E-06
 -1.16953992E-05  9.02526093E-06  7.35415032E-03  7.36829294E-03  7.37084938E-03
 -8.55220447E-06  5.55375819E-06  2.95926280E-06 -6.82620192E-03 -1.02173904E-04
  7.87249547E-07  4.61747108E-07 -5.52414239E-06  1.94565187E-04 -2.27048857E-06
 -7.91029016E-07  2.80509416E-05 -1.30478810E-04 -2.48913086E-05 -2.25714924E-05
  5.99988019E-05 -6.11591895E-05 -5.69700975E-05 -8.21802497E-05 -2.60660473E-06
  1.07706126E-05  9.25277994E-06  2.17629060E-01  3.31529031E-03  1.39323572E-05
 -7.60451623E-06  4.68861802E-06 -4.55518255E-03 -3.12917930E-05  1.63190916E-05
 -1.00057602E-05  2.47103649E-04 -5.65061246E-05 -3.86988875E-06  3.12236918E-06
  1.61595092E-03  1.64785137E-03  1.64859879E-03  4.80436661E-06 -2.78726800E-06
  1.40486147E-07 -4.54228103E-06 -2.29618109E-05 -4.25690030E-06  1.02589041E-05
 -1.17185542E-07 -1.26848064E-05 -1.45585574E-05  5.70361612E-06 -5.52457325E-07
 -6.01638233E-05 -4.99837763E-05 -1.94441170E-05 -2.02245899E-05 -2.51766270E-05
 -9.88320922E-09 -1.20124148E-07 -1.30897669E-05 -1.65628057E-05  2.09325875E-05
 -2.61704227E-08 -3.61820355E-06  6.00622723E-05  2.72554360E-04 -5.62785840E-08
 -6.57554674E-06  2.01544313E-05 -3.10425181E-05 -2.22752176E-05 -6.25021824E-05
  8.97615995E-08  2.85036883E-09  2.16095446E-07  8.31195075E-06 -5.22415561E-05
  8.31078543E-06 -5.22369957E-05  5.74153940E-03  8.89143779E-05 -3.91572918E-06
 -2.41639336E-06  2.78018350E-06 -7.88494028E-05  1.86608731E-05  1.15252934E-05
 -1.08881227E-05 -9.15948669E-05  3.04527702E-05  1.65259034E-05 -5.23023792E-05
  3.15297970E-05  3.77792014E-05  2.33408486E-05 -6.24200195E-06  1.59977939E-05
  9.02179844E-06  9.95965379E-01  1.51656228E-02 -1.69018240E-08 -1.79884082E-06
 -5.37689056E-05 -2.10329102E-02  1.32571485E-08  1.44673638E-06  6.20309419E-05
  1.57418269E-03 -2.53657335E-09  1.98305494E-07 -2.47134669E-05  7.55538417E-03
  7.55532466E-03  7.53702069E-03 -1.12435718E-09 -3.86340115E-09 -6.11472056E-07
  5.60706210E-03  8.68667612E-05  3.86572899E-06 -2.48408494E-06  2.77797623E-06
 -7.60038756E-05 -1.84434756E-05  1.18615618E-05 -1.08861907E-05 -9.18210460E-05
 -3.01571786E-05  1.70809604E-05 -5.23032764E-05  3.07060247E-05  3.65595957E-05
  2.23206021E-05  6.36869891E-06 -1.58298770E-05  9.31204831E-06 -1.45470269E-04
 -2.16997772E-04  6.44291064E-04 -3.63849548E-04 -2.73995441E-07 -3.01585844E-05
 -1.05338173E-05  5.12260002E-03  1.82116283E-05  1.99433458E-03  7.00742180E-04
 -1.15895359E-04 -2.89164118E-04 -1.37159329E-04 -1.82674584E-06 -6.42874179E-07
 -7.03175258E-05  9.93319214E-01  4.87748651E-02  6.06083525E-06  6.64438833E-04
  2.32950069E-04 -1.83655027E-02  3.43274580E-06  3.76288347E-04  1.31202752E-04
 -8.50973737E-03 -8.47112524E-03 -8.50561112E-03  4.00202169E-07  1.47786098E-07
  1.56516052E-05 -1.45492792E-04 -2.17533741E-04 -1.45496281E-04 -2.17524691E-04
 -7.51961109E-06 -8.15281571E-06  1.67578294E-05  9.84589284E-06 -6.71078758E-06
  1.41123885E-04 -2.47093835E-04 -1.43390107E-04  9.92766634E-05  2.59494088E-03
 -1.32681789E-03 -7.84025977E-04  5.26807015E-04 -1.02231354E-04 -1.18202989E-04
 -1.09855712E-04  1.14896958E-05  2.25942890E-06 -1.25038871E-05 -7.48838965E-06
 -8.31777088E-06  3.68781760E-09  4.17238923E-07  2.08076536E-05  1.39932958E-04
 -4.22589989E-08 -4.46297436E-06 -3.03376291E-04  2.59250773E-03 -3.70283436E-07
 -3.84178086E-05 -1.62718992E-03 -1.04746575E-04 -1.28679674E-04 -9.48414971E-05
 -2.51669656E-07  2.27070936E-08  2.54567080E-06 -7.52038657E-06 -8.14831568E-06
 -1.65707565E-05  1.01477879E-05 -6.70845873E-06  1.41153621E-04  2.44416887E-04
 -1.47872085E-04  9.92661712E-05  2.59500773E-03  1.31229088E-03 -8.08168265E-04
  5.26803673E-04 -1.02629251E-04 -1.17843824E-04 -1.09863270E-04 -1.18012542E-05
 -2.50176285E-06 -1.24532320E-05 -3.01675917E-05  2.62744303E-03  9.92871392E-01
  5.02605615E-02  3.10283838E-06  3.39803386E-04  1.19426117E-04 -1.70322787E-02
 -1.16762300E-05 -1.27811147E-03 -4.49794311E-04 -9.18740004E-03 -9.28008540E-03
 -9.19885476E-03 -9.79320224E-07 -3.44057909E-07 -3.77966497E-05 -8.80048694E-04
 -1.34735130E-04  1.35158568E-06  1.48075952E-04  5.16483774E-05  3.98563364E-03
 -1.96512776E-05 -2.15190757E-03 -7.53690926E-04 -1.24285658E-04 -4.28110543E-04
 -1.61799026E-04 -3.20513287E-06 -1.12505478E-06 -1.23299632E-04 -3.00663535E-05
  2.62782104E-03 -3.00648658E-05  2.62780947E-03 -6.11469623E-07 -4.06529748E-05
 -1.01678071E-05 -1.01282931E-05  2.59897128E-06 -6.79184305E-05  8.15003618E-05
  9.51199463E-05 -1.57718426E-05  2.98863037E-04 -1.62205970E-04 -1.62253493E-04
  4.07055289E-05 -9.63166123E-05 -1.68650167E-05 -1.09730921E-04  1.02749431E-05
 -2.36093934E-05  4.25747153E-05 -6.08076081E-07 -4.06256197E-05 -4.05382857E-08
 -4.41454746E-06 -1.39504784E-05 -6.76886360E-05  4.53374394E-07  4.94614833E-05
  1.16398859E-04  2.97237053E-04 -6.59786868E-07 -7.17848834E-05 -2.20872704E-04
 -1.35220170E-04 -1.33005141E-05 -7.45356706E-05  1.28608183E-06  2.72431510E-07
  2.97285889E-05 -6.11499259E-07 -4.06532077E-05  9.98075184E-06 -1.03129401E-05
  2.59830809E-06 -6.79206171E-05 -7.97478913E-05  9.65964276E-05 -1.57683324E-05
  2.98869090E-04  1.59219105E-04 -1.65185996E-04  4.07062241E-05 -9.66125377E-05
 -1.65696609E-05 -1.09730009E-04 -8.59049341E-06  2.43859041E-05  4.21368428E-05
 -5.50036329E-05  1.63847972E-05 -9.62804836E-06 -7.21328995E-05  2.37022976E-04
 -1.77773667E-05  1.68505375E-05  2.62660078E-04 -1.93369440E-03  3.27073550E-04
 -7.36027336E-05 -1.06390376E-05  2.30114415E-05 -1.04432469E-05 -1.26432788E-04
 -6.11058027E-05 -7.85200784E-07  7.46979699E-06  1.83758476E-04  3.20767494E-04
 -2.68145388E-05  2.19124271E-05 -4.10920964E-04 -4.53264068E-05  1.06100669E-04
  3.23062050E-05 -8.68773212E-05 -3.19662350E-05  5.83609654E-06  4.74945924E-04
 -4.21287326E-04  2.48325291E-05  2.41653851E-04  6.76471120E-04 -2.72497113E-04
 -4.67685396E-04  1.70875972E-01 -6.13756329E-01  2.55624588E-03  1.57753929E-03
 -1.01328033E-03 -4.49019073E-02  8.50222939E-04  3.70477041E-04 -2.23183149E-04
  9.37767851E-03 -1.93025850E-03 -5.48659158E-04  2.68625313E-04  9.69335848E-03
  9.65063889E-03  9.65470141E-03 -1.98591650E-04  1.55446064E-04  7.46278505E-05
  2.28988286E-03 -8.24757451E-03 -3.18877803E-05  4.51054134E-06  4.20717695E-05
 -6.62613464E-04  2.29030921E-04 -1.97226469E-05  2.33988306E-05  4.10669280E-04
 -1.00590998E-03  7.11992796E-05 -2.03582249E-04  1.00523810E-04  8.90259555E-05
  1.24278566E-04 -1.08203265E-04  2.33962136E-04 -1.54854293E-05 -2.27635031E-01
  8.17571168E-01  3.37439398E-03 -2.15590359E-03  1.34384750E-03  5.96730077E-02
  1.05085345E-03 -5.58218349E-04  3.34408151E-04 -1.18197462E-02 -2.00058815E-03
  7.92504078E-04 -4.35534254E-04 -1.28725117E-02 -1.29498484E-02 -1.29856204E-02
 -2.66873963E-04  1.93612517E-04 -1.09728065E-04 -3.85944722E-04  1.10284419E-04
 -6.72245635E-05 -5.03643069E-04 -3.48316143E-05 -1.09194299E-04  1.19075106E-04
  1.83399244E-03  2.96018991E-04  2.16178878E-03 -5.25481088E-04 -6.00649046E-05
  1.46860032E-04 -7.33209564E-05  2.02704194E-05  8.62144861E-06 -1.01919240E-05
  5.21972771E-05  1.28310440E-03 -4.72910779E-05 -1.66928919E-04  1.54871845E-04
 -2.86940666E-03  1.33303577E-05  7.37999178E-04  2.25209246E-04 -6.63053307E-04
 -1.70388680E-04  4.45156842E-05 -6.24599134E-05  6.14683735E-05  1.46361122E-04
 -1.43407238E-04  6.49383605E-04 -7.00630596E-05  8.12600733E-04 -2.27306214E-01
  8.16252465E-01 -3.42825472E-03 -2.07088497E-03  1.32624210E-03  5.92179479E-02
 -8.74309535E-04 -6.55029692E-04  4.30470603E-04 -1.00762847E-02  5.79843248E-04
  8.20769618E-04 -6.40315078E-04 -1.27182709E-02 -1.32013748E-02 -1.32862242E-02
  2.65525348E-04 -1.64930146E-04 -1.22954789E-04  1.74521133E-02 -6.28433477E-02
  4.83744476E-06  3.05171295E-05  3.20855080E-04 -5.01058570E-03 -3.38189320E-05
 -1.22914075E-04  1.71373445E-04  2.94529619E-03  1.47531826E-04  4.32830436E-04
 -1.43652614E-03  7.98166639E-04  6.93297672E-04  9.48774508E-04  1.43111484E-05
 -3.42463759E-05 -9.32260817E-05 -1.70458161E-01  6.12071948E-01  2.54809649E-03
 -1.59404310E-03  9.90008516E-04  4.43002283E-02  5.92010401E-04 -5.36222949E-04
  3.50930208E-04 -7.05244985E-03 -5.49559440E-06  6.34888478E-04 -5.39868598E-04
 -9.50688776E-03 -9.96971757E-03 -1.00565646E-02 -2.09299210E-04  1.13056900E-04
 -9.92513115E-05  7.11589082E-05  9.45388165E-04 -5.46842917E-05 -4.09401997E-04
 -4.66867863E-08  1.29284287E-05 -1.93325474E-04  1.49194116E-03  9.81832401E-06
  9.26101319E-04  1.94081429E-03 -3.18107986E-05  1.92799597E-05  2.30195777E-05
  6.29626812E-07  1.31828273E-06  1.39310738E-04  4.28466281E-05  1.04345553E-03
 -2.02918662E-07  2.09849671E-06 -2.65560451E-04 -2.33482780E-03  5.30092691E-06
  5.78469925E-04  2.42789161E-04  8.55315624E-05  8.46823886E-06 -7.33659272E-04
 -1.14492217E-06  5.94918472E-07  3.38181158E-05 -2.79498178E-04  1.65073531E-04
 -2.79134513E-04  1.65859157E-04 -1.26001529E-02  4.51251654E-02 -1.83920988E-04
 -1.11154655E-04  9.87818762E-05  2.95640994E-03 -5.60500188E-05 -3.95157188E-05
 -1.71367695E-04  9.68754916E-04 -4.84602321E-04 -3.36288826E-04  1.01475800E-03
 -8.79194099E-04 -9.49985314E-04 -7.45068231E-04  9.97602836E-05 -1.58273541E-04
 -9.95565955E-05 -2.84105061E-01  1.02028643E+00 -1.86542916E-06 -1.99688460E-04
 -5.26276731E-03  7.42029683E-02 -8.53972212E-07 -7.44718062E-05 -1.48816294E-03
 -1.34750050E-02  1.61548784E-06  9.78154941E-05  1.88635947E-03 -1.64966001E-02
 -1.65341566E-02 -1.57403377E-02 -3.19401077E-07 -2.03650541E-07 -5.28970056E-06