CH2CCl3_new_1 0.0                                                       
SP        RB3LYP                                                      6-31G(d)            
Number of atoms                            I               11
Info1-9                                    I   N=           9
          20          20           0           0           0         110
           1          18        -502
Full Title                                 C   N=           2
CH2CCl3_new_1 0.0       
Route                                      C   N=           2
# nosymm b3lyp/6-31G*   
Charge                                     I                0
Multiplicity                               I                1
Number of electrons                        I               74
Number of alpha electrons                  I               37
Number of beta electrons                   I               37
Number of basis functions                  I              112
Number of independent functions            I              112
Number of point charges in /Mol/           I                0
Number of translation vectors              I                0
Atomic numbers                             I   N=          11
           6           1           6           6           1           1
          17          17          17           1           1
Nuclear charges                            R   N=          11
  6.00000000E+00  1.00000000E+00  6.00000000E+00  6.00000000E+00  1.00000000E+00
  1.00000000E+00  1.70000000E+01  1.70000000E+01  1.70000000E+01  1.00000000E+00
  1.00000000E+00
Current cartesian coordinates              R   N=          33
  0.00000000E+00  0.00000000E+00  0.00000000E+00 -9.40719554E-01 -1.67720131E+00
 -7.57677280E-01 -2.61449636E+00  3.30456407E-04  4.12401125E+00  0.00000000E+00
  0.00000000E+00  2.88906411E+00  9.89587966E-01  1.66746088E+00  3.61346644E+00
  9.88781658E-01 -1.66792451E+00  3.61328052E+00 -4.38143713E+00  2.77571874E+00
  3.22671722E+00 -2.24444692E+00  9.99665120E-06  7.51744967E+00 -4.38296335E+00
 -2.77355631E+00  3.22621363E+00  1.95698441E+00 -6.60421486E-04 -6.72745259E-01
 -9.39579690E-01  1.67787496E+00 -7.57468957E-01
Number of symbols in /Mol/                 I                0
Force Field                                I                0
Atom Types                                 C   N=          11
                                                            
                                                            
            
Int Atom Types                             I   N=          11
           0           0           0           0           0           0
           0           0           0           0           0
MM charges                                 R   N=          11
  0.00000000E+00  0.00000000E+00  0.00000000E+00  0.00000000E+00  0.00000000E+00
  0.00000000E+00  0.00000000E+00  0.00000000E+00  0.00000000E+00  0.00000000E+00
  0.00000000E+00
Integer atomic weights                     I   N=          11
          12           1          12          12           1           1
          35          35          35           1           1
Real atomic weights                        R   N=          11
  1.20000000E+01  1.00782504E+00  1.20000000E+01  1.20000000E+01  1.00782504E+00
  1.00782504E+00  3.49688527E+01  3.49688527E+01  3.49688527E+01  1.00782504E+00
  1.00782504E+00
Atom fragment info                         I   N=          11
           0           0           0           0           0           0
           0           0           0           0           0
Atom residue num                           I   N=          11
           0           0           0           0           0           0
           0           0           0           0           0
Nuclear spins                              I   N=          11
           0           1           0           0           1           1
           3           3           3           1           1
Nuclear ZEff                               R   N=          11
 -3.60000000E+00 -1.00000000E+00 -3.60000000E+00 -3.60000000E+00 -1.00000000E+00
 -1.00000000E+00 -1.42400000E+01 -1.42400000E+01 -1.42400000E+01 -1.00000000E+00
 -1.00000000E+00
Nuclear ZNuc                               R   N=          11
  6.00000000E+00  1.00000000E+00  6.00000000E+00  6.00000000E+00  1.00000000E+00
  1.00000000E+00  1.70000000E+01  1.70000000E+01  1.70000000E+01  1.00000000E+00
  1.00000000E+00
Nuclear QMom                               R   N=          11
  0.00000000E+00  0.00000000E+00  0.00000000E+00  0.00000000E+00  0.00000000E+00
  0.00000000E+00 -8.16500000E+00 -8.16500000E+00 -8.16500000E+00  0.00000000E+00
  0.00000000E+00
Nuclear GFac                               R   N=          11
  0.00000000E+00  2.79284600E+00  0.00000000E+00  0.00000000E+00  2.79284600E+00
  2.79284600E+00  8.21874000E-01  8.21874000E-01  8.21874000E-01  2.79284600E+00
  2.79284600E+00
MicOpt                                     I   N=          11
          -1          -1          -1          -1          -1          -1
          -1          -1          -1          -1          -1
Number of residues                         I                0
Number of secondary structures             I                0
Number of contracted shells                I               37
Number of primitive shells                 I              104
Pure/Cartesian d shells                    I                1
Pure/Cartesian f shells                    I                0
Highest angular momentum                   I                2
Largest degree of contraction              I                6
Shell types                                I   N=          37
           0          -1          -1           2           0           0
           0          -1          -1           2           0          -1
          -1           2           0           0           0           0
           0          -1          -1          -1           2           0
          -1          -1          -1           2           0          -1
          -1          -1           2           0           0           0
           0
Number of primitives per shell             I   N=          37
           6           3           1           1           3           1
           6           3           1           1           6           3
           1           1           3           1           3           1
           6           6           3           1           1           6
           6           3           1           1           6           6
           3           1           1           3           1           3
           1
Shell to atom map                          I   N=          37
           1           1           1           1           2           2
           3           3           3           3           4           4
           4           4           5           5           6           6
           7           7           7           7           7           8
           8           8           8           8           9           9
           9           9           9          10          10          11
          11
Primitive exponents                        R   N=         104
  3.04752488E+03  4.57369518E+02  1.03948685E+02  2.92101553E+01  9.28666296E+00
  3.16392696E+00  7.86827235E+00  1.88128854E+00  5.44249258E-01  1.68714478E-01
  8.00000000E-01  1.87311370E+01  2.82539436E+00  6.40121692E-01  1.61277759E-01
  3.04752488E+03  4.57369518E+02  1.03948685E+02  2.92101553E+01  9.28666296E+00
  3.16392696E+00  7.86827235E+00  1.88128854E+00  5.44249258E-01  1.68714478E-01
  8.00000000E-01  3.04752488E+03  4.57369518E+02  1.03948685E+02  2.92101553E+01
  9.28666296E+00  3.16392696E+00  7.86827235E+00  1.88128854E+00  5.44249258E-01
  1.68714478E-01  8.00000000E-01  1.87311370E+01  2.82539436E+00  6.40121692E-01
  1.61277759E-01  1.87311370E+01  2.82539436E+00  6.40121692E-01  1.61277759E-01
  2.51801000E+04  3.78035000E+03  8.60474000E+02  2.42145000E+02  7.73349000E+01
  2.62470000E+01  4.91765000E+02  1.16984000E+02  3.74153000E+01  1.37834000E+01
  5.45215000E+00  2.22588000E+00  3.18649000E+00  1.14427000E+00  4.20377000E-01
  1.42657000E-01  7.50000000E-01  2.51801000E+04  3.78035000E+03  8.60474000E+02
  2.42145000E+02  7.73349000E+01  2.62470000E+01  4.91765000E+02  1.16984000E+02
  3.74153000E+01  1.37834000E+01  5.45215000E+00  2.22588000E+00  3.18649000E+00
  1.14427000E+00  4.20377000E-01  1.42657000E-01  7.50000000E-01  2.51801000E+04
  3.78035000E+03  8.60474000E+02  2.42145000E+02  7.73349000E+01  2.62470000E+01
  4.91765000E+02  1.16984000E+02  3.74153000E+01  1.37834000E+01  5.45215000E+00
  2.22588000E+00  3.18649000E+00  1.14427000E+00  4.20377000E-01  1.42657000E-01
  7.50000000E-01  1.87311370E+01  2.82539436E+00  6.40121692E-01  1.61277759E-01
  1.87311370E+01  2.82539436E+00  6.40121692E-01  1.61277759E-01
Contraction coefficients                   R   N=         104
  1.83473713E-03  1.40373228E-02  6.88426223E-02  2.32184443E-01  4.67941348E-01
  3.62311985E-01 -1.19332420E-01 -1.60854152E-01  1.14345644E+00  1.00000000E+00
  1.00000000E+00  3.34946043E-02  2.34726953E-01  8.13757326E-01  1.00000000E+00
  1.83473713E-03  1.40373228E-02  6.88426223E-02  2.32184443E-01  4.67941348E-01
  3.62311985E-01 -1.19332420E-01 -1.60854152E-01  1.14345644E+00  1.00000000E+00
  1.00000000E+00  1.83473713E-03  1.40373228E-02  6.88426223E-02  2.32184443E-01
  4.67941348E-01  3.62311985E-01 -1.19332420E-01 -1.60854152E-01  1.14345644E+00
  1.00000000E+00  1.00000000E+00  3.34946043E-02  2.34726953E-01  8.13757326E-01
  1.00000000E+00  3.34946043E-02  2.34726953E-01  8.13757326E-01  1.00000000E+00
  1.83295985E-03  1.40341988E-02  6.90973943E-02  2.37451980E-01  4.83033960E-01
  3.39855972E-01 -2.29739142E-03 -3.07137189E-02 -1.12528069E-01  4.50163278E-02
  5.89353363E-01  4.65206287E-01 -2.51828028E-01  6.15892514E-02  1.06018433E+00
  1.00000000E+00  1.00000000E+00  1.83295985E-03  1.40341988E-02  6.90973943E-02
  2.37451980E-01  4.83033960E-01  3.39855972E-01 -2.29739142E-03 -3.07137189E-02
 -1.12528069E-01  4.50163278E-02  5.89353363E-01  4.65206287E-01 -2.51828028E-01
  6.15892514E-02  1.06018433E+00  1.00000000E+00  1.00000000E+00  1.83295985E-03
  1.40341988E-02  6.90973943E-02  2.37451980E-01  4.83033960E-01  3.39855972E-01
 -2.29739142E-03 -3.07137189E-02 -1.12528069E-01  4.50163278E-02  5.89353363E-01
  4.65206287E-01 -2.51828028E-01  6.15892514E-02  1.06018433E+00  1.00000000E+00
  1.00000000E+00  3.34946043E-02  2.34726953E-01  8.13757326E-01  1.00000000E+00
  3.34946043E-02  2.34726953E-01  8.13757326E-01  1.00000000E+00
P(S=P) Contraction coefficients            R   N=         104
  0.00000000E+00  0.00000000E+00  0.00000000E+00  0.00000000E+00  0.00000000E+00
  0.00000000E+00  6.89990666E-02  3.16423961E-01  7.44308291E-01  1.00000000E+00
  0.00000000E+00  0.00000000E+00  0.00000000E+00  0.00000000E+00  0.00000000E+00
  0.00000000E+00  0.00000000E+00  0.00000000E+00  0.00000000E+00  0.00000000E+00
  0.00000000E+00  6.89990666E-02  3.16423961E-01  7.44308291E-01  1.00000000E+00
  0.00000000E+00  0.00000000E+00  0.00000000E+00  0.00000000E+00  0.00000000E+00
  0.00000000E+00  0.00000000E+00  6.89990666E-02  3.16423961E-01  7.44308291E-01
  1.00000000E+00  0.00000000E+00  0.00000000E+00  0.00000000E+00  0.00000000E+00
  0.00000000E+00  0.00000000E+00  0.00000000E+00  0.00000000E+00  0.00000000E+00
  0.00000000E+00  0.00000000E+00  0.00000000E+00  0.00000000E+00  0.00000000E+00
  0.00000000E+00  3.98940088E-03  3.03177067E-02  1.29880029E-01  3.27951072E-01
  4.53527100E-01  2.52154056E-01 -1.42993147E-02  3.23572333E-01  7.43507765E-01
  1.00000000E+00  0.00000000E+00  0.00000000E+00  0.00000000E+00  0.00000000E+00
  0.00000000E+00  0.00000000E+00  0.00000000E+00  3.98940088E-03  3.03177067E-02
  1.29880029E-01  3.27951072E-01  4.53527100E-01  2.52154056E-01 -1.42993147E-02
  3.23572333E-01  7.43507765E-01  1.00000000E+00  0.00000000E+00  0.00000000E+00
  0.00000000E+00  0.00000000E+00  0.00000000E+00  0.00000000E+00  0.00000000E+00
  3.98940088E-03  3.03177067E-02  1.29880029E-01  3.27951072E-01  4.53527100E-01
  2.52154056E-01 -1.42993147E-02  3.23572333E-01  7.43507765E-01  1.00000000E+00
  0.00000000E+00  0.00000000E+00  0.00000000E+00  0.00000000E+00  0.00000000E+00
  0.00000000E+00  0.00000000E+00  0.00000000E+00  0.00000000E+00
Coordinates of each shell                  R   N=         111
  0.00000000E+00  0.00000000E+00  0.00000000E+00  0.00000000E+00  0.00000000E+00
  0.00000000E+00  0.00000000E+00  0.00000000E+00  0.00000000E+00  0.00000000E+00
  0.00000000E+00  0.00000000E+00 -9.40719554E-01 -1.67720131E+00 -7.57677280E-01
 -9.40719554E-01 -1.67720131E+00 -7.57677280E-01 -2.61449636E+00  3.30456407E-04
  4.12401125E+00 -2.61449636E+00  3.30456407E-04  4.12401125E+00 -2.61449636E+00
  3.30456407E-04  4.12401125E+00 -2.61449636E+00  3.30456407E-04  4.12401125E+00
  0.00000000E+00  0.00000000E+00  2.88906411E+00  0.00000000E+00  0.00000000E+00
  2.88906411E+00  0.00000000E+00  0.00000000E+00  2.88906411E+00  0.00000000E+00
  0.00000000E+00  2.88906411E+00  9.89587966E-01  1.66746088E+00  3.61346644E+00
  9.89587966E-01  1.66746088E+00  3.61346644E+00  9.88781658E-01 -1.66792451E+00
  3.61328052E+00  9.88781658E-01 -1.66792451E+00  3.61328052E+00 -4.38143713E+00
  2.77571874E+00  3.22671722E+00 -4.38143713E+00  2.77571874E+00  3.22671722E+00
 -4.38143713E+00  2.77571874E+00  3.22671722E+00 -4.38143713E+00  2.77571874E+00
  3.22671722E+00 -4.38143713E+00  2.77571874E+00  3.22671722E+00 -2.24444692E+00
  9.99665120E-06  7.51744967E+00 -2.24444692E+00  9.99665120E-06  7.51744967E+00
 -2.24444692E+00  9.99665120E-06  7.51744967E+00 -2.24444692E+00  9.99665120E-06
  7.51744967E+00 -2.24444692E+00  9.99665120E-06  7.51744967E+00 -4.38296335E+00
 -2.77355631E+00  3.22621363E+00 -4.38296335E+00 -2.77355631E+00  3.22621363E+00
 -4.38296335E+00 -2.77355631E+00  3.22621363E+00 -4.38296335E+00 -2.77355631E+00
  3.22621363E+00 -4.38296335E+00 -2.77355631E+00  3.22621363E+00  1.95698441E+00
 -6.60421486E-04 -6.72745259E-01  1.95698441E+00 -6.60421486E-04 -6.72745259E-01
 -9.39579690E-01  1.67787496E+00 -7.57468957E-01 -9.39579690E-01  1.67787496E+00
 -7.57468957E-01
Num ILSW                                   I              100
ILSW                                       I   N=         100
           0           1           0           0           2           0
           0           0           0           0         402          -1
           5           0           0           0           0           0
           0           0           1           0           0           0
           1           1           0           0           0           0
           0           0      100000           0          -1           0
           0           0           0           0           0           0
           0           0           0           1           0           0
           0 -2000000000           1           0           0           0
           0           0           4          52           0           0
           0           0           5           0           0           0
           0           0           0           0           0           1
           0           0           0           0           0           0
           0           0           0           0           0           0
           0           0           0           0           0           0
           0           0           0           0           0           0
           0           0           0           0
Num RLSW                                   I               52
RLSW                                       R   N=          52
  8.00000000E-01  7.20000000E-01  1.00000000E+00  8.10000000E-01  2.00000000E-01
  0.00000000E+00  0.00000000E+00  1.00000000E+00  0.00000000E+00  0.00000000E+00
  0.00000000E+00  0.00000000E+00  1.00000000E+00  0.00000000E+00  0.00000000E+00
  0.00000000E+00  0.00000000E+00  1.00000000E+00  0.00000000E+00  0.00000000E+00
  0.00000000E+00  0.00000000E+00  1.00000000E+00  0.00000000E+00  0.00000000E+00
  0.00000000E+00  0.00000000E+00  1.00000000E+00  0.00000000E+00  0.00000000E+00
  0.00000000E+00  0.00000000E+00  1.00000000E+00  0.00000000E+00  0.00000000E+00
  0.00000000E+00  0.00000000E+00  0.00000000E+00  1.00000000E+00  1.00000000E+00
  0.00000000E+00  1.00000000E+00  0.00000000E+00  0.00000000E+00  0.00000000E+00
  0.00000000E+00  0.00000000E+00  0.00000000E+00  0.00000000E+00  0.00000000E+00
  0.00000000E+00  0.00000000E+00
MxBond                                     I                4
NBond                                      I   N=          11
           4           1           4           4           1           1
           1           1           1           1           1
IBond                                      I   N=          44
           2           4          10          11           1           0
           0           0           4           7           8           9
           1           3           5           6           4           0
           0           0           4           0           0           0
           3           0           0           0           3           0
           0           0           3           0           0           0
           1           0           0           0           1           0
           0           0
RBond                                      R   N=          44
  1.00000000E+00  1.00000000E+00  1.00000000E+00  1.00000000E+00  1.00000000E+00
  0.00000000E+00  0.00000000E+00  0.00000000E+00  1.00000000E+00  1.00000000E+00
  1.00000000E+00  1.00000000E+00  1.00000000E+00  1.00000000E+00  1.00000000E+00
  1.00000000E+00  1.00000000E+00  0.00000000E+00  0.00000000E+00  0.00000000E+00
  1.00000000E+00  0.00000000E+00  0.00000000E+00  0.00000000E+00  1.00000000E+00
  0.00000000E+00  0.00000000E+00  0.00000000E+00  1.00000000E+00  0.00000000E+00
  0.00000000E+00  0.00000000E+00  1.00000000E+00  0.00000000E+00  0.00000000E+00
  0.00000000E+00  1.00000000E+00  0.00000000E+00  0.00000000E+00  0.00000000E+00
  1.00000000E+00  0.00000000E+00  0.00000000E+00  0.00000000E+00
Virial Ratio                               R      2.003590500186298E+00
SCF Energy                                 R     -1.497912595558932E+03
Total Energy                               R     -1.497912595558932E+03
RMS Density                                R      3.087778494231999E-09
Job Status                                 I                1
Nuclear derivative order                   I                0
External E-field                           R   N=          35
  0.00000000E+00  0.00000000E+00  0.00000000E+00  0.00000000E+00  0.00000000E+00
  0.00000000E+00  0.00000000E+00  0.00000000E+00  0.00000000E+00  0.00000000E+00
  0.00000000E+00  0.00000000E+00  0.00000000E+00  0.00000000E+00  0.00000000E+00
  0.00000000E+00  0.00000000E+00  0.00000000E+00  0.00000000E+00  0.00000000E+00
  0.00000000E+00  0.00000000E+00  0.00000000E+00  0.00000000E+00  0.00000000E+00
  0.00000000E+00  0.00000000E+00  0.00000000E+00  0.00000000E+00  0.00000000E+00
  0.00000000E+00  0.00000000E+00  0.00000000E+00  0.00000000E+00  0.00000000E+00
IOpCl                                      I                0
IROHF                                      I                0
Alpha Orbital Energies                     R   N=         112
 -1.01564426E+02 -1.01564398E+02 -1.01563536E+02 -1.03756292E+01 -1.02263722E+01
 -1.01959414E+01 -9.48129001E+00 -9.48125774E+00 -9.48046396E+00 -7.24580254E+00
 -7.24576856E+00 -7.24500188E+00 -7.23502605E+00 -7.23499712E+00 -7.23495786E+00
 -7.23492887E+00 -7.23418223E+00 -7.23410784E+00 -9.44870013E-01 -8.37196228E-01
 -8.36551570E-01 -7.91706612E-01 -6.77317811E-01 -5.90031053E-01 -5.01806549E-01
 -4.91731489E-01 -4.70022737E-01 -4.43617674E-01 -4.02350384E-01 -3.86626404E-01
 -3.70191018E-01 -3.50117958E-01 -3.48776682E-01 -3.27392504E-01 -3.18979770E-01
 -3.18380296E-01 -3.05851250E-01 -4.16225145E-02  1.56055569E-03  4.79074551E-03
  9.80997987E-02  1.36542817E-01  1.38412430E-01  1.56335052E-01  1.69406337E-01
  1.78932284E-01  2.12787625E-01  3.06922463E-01  3.65723671E-01  3.66361473E-01
  3.98081125E-01  4.02111226E-01  4.23188746E-01  4.39993929E-01  4.51517958E-01
  4.62048624E-01  4.85824005E-01  5.04372589E-01  5.08227648E-01  5.15525387E-01
  5.22677818E-01  5.58900846E-01  5.93310999E-01  6.27566996E-01  6.43205140E-01
  6.55050601E-01  6.83643564E-01  7.25201972E-01  8.32748907E-01  8.35477831E-01
  8.40135320E-01  8.43368669E-01  8.55280127E-01  8.61226418E-01  8.79026583E-01
  8.79899298E-01  8.92997310E-01  9.16216325E-01  9.20576596E-01  9.24851933E-01
  9.51016982E-01  9.61520045E-01  9.81438046E-01  1.04374540E+00  1.05179326E+00
  1.12026103E+00  1.14408684E+00  1.17993450E+00  1.24253882E+00  1.42982922E+00
  1.52022956E+00  1.52649589E+00  1.60868983E+00  1.69063849E+00  1.86475320E+00
  1.88509785E+00  1.92215645E+00  1.98809220E+00  2.04080880E+00  2.12775620E+00
  2.15439153E+00  2.29532805E+00  2.32733737E+00  2.34977842E+00  2.54836542E+00
  2.64042126E+00  3.98579394E+00  4.18545540E+00  4.27151459E+00  4.27494785E+00
  4.31562467E+00  4.43192943E+00
Alpha MO coefficients                      R   N=       12544
  2.84762100E-06  1.74624015E-05 -4.55323804E-06  4.38158760E-06  2.23107082E-06
 -5.18469083E-05  3.21325861E-05 -3.36353166E-05 -5.61041823E-05  1.95917516E-07
  4.25720297E-06  5.94314755E-07 -3.50223366E-06  4.85218945E-06  5.85533383E-06
  6.60395384E-06 -6.60441634E-05 -1.49961616E-05  2.18001124E-05 -2.78103920E-05
 -5.20584423E-05 -1.32720524E-05  2.01774517E-04 -2.32567131E-05 -1.16936469E-05
 -1.23385068E-05 -2.95244427E-05 -4.29159226E-05 -2.95128141E-05 -1.41322193E-05
 -6.56583231E-06 -5.60919268E-06 -5.41492816E-06  4.19763915E-06  1.79603494E-05
  9.36998023E-06 -4.02173840E-06  6.83647438E-05  3.69795918E-05  2.26161197E-05
 -3.03484139E-05 -3.02156552E-05 -2.20326725E-05 -1.29537149E-05 -1.06550736E-05
  2.18375908E-06  4.81171299E-06 -6.08285870E-06 -1.28616696E-05  7.27755670E-06
 -4.98481557E-05 -2.47911031E-02 -3.75202382E-04  9.24790997E-07 -3.46892185E-06
  2.58450235E-07  5.65309497E-04 -8.55000033E-06  1.84333174E-05 -3.24008319E-06
 -1.44484336E-04  9.82101865E-08  6.55808119E-05 -3.24524941E-08 -1.87786145E-04
 -2.19498954E-04 -1.87691787E-04  2.45757969E-06  8.37043965E-07  1.01273579E-06
 -8.01934793E-04 -1.12520139E-05 -9.80709134E-07 -1.09248455E-06 -4.23347475E-06
  5.47224691E-05  3.43120057E-06  3.10823297E-06  2.03982749E-05 -7.94191927E-05
  2.50105476E-05  3.14827954E-05  3.43123009E-05 -1.32802145E-05 -1.46740530E-05
 -2.64359541E-05 -5.53401800E-06 -1.06259130E-05 -1.34143505E-05  9.95688807E-01
  1.51599326E-02  2.95699665E-05  4.35272943E-05  1.16912643E-05 -2.10287582E-02
 -3.53271345E-05 -5.08690222E-05 -8.87177589E-06  1.59379059E-03  2.23972994E-05
  2.85606824E-05 -3.58399794E-06  7.54497182E-03  7.53868169E-03  7.54953412E-03
 -8.33868056E-06 -2.87588643E-06 -4.22488129E-06 -1.76711162E-06 -1.85546133E-05
  7.88487635E-06  2.36749134E-05  2.99447503E-06  1.83571650E-05 -4.79054912E-06
 -4.16437789E-06  2.34502098E-06 -5.45412954E-05  3.38107589E-05  3.19640433E-05
 -5.89857829E-05  2.14718708E-07  4.47442716E-06  6.25585131E-07  3.33498790E-06
  5.09758520E-06 -5.57331561E-06  8.22533290E-06  2.04078688E-05 -1.57614509E-05
  2.28329958E-05 -2.92043070E-05  4.95439912E-05 -1.39386732E-05  2.11941729E-04
 -2.44808754E-05  1.11768954E-05 -1.29639810E-05 -3.09729064E-05 -4.50313817E-05
 -3.09948654E-05  1.33906832E-05 -6.87230718E-06  5.31210001E-06 -5.69491798E-06
  4.39196242E-06  1.88731515E-05 -8.92739043E-06 -4.22623882E-06  7.19735767E-05
  3.88071369E-05 -2.15024852E-05 -3.19074733E-05 -3.17456374E-05 -2.31701463E-05
 -1.36234107E-05  1.01390685E-05  2.29675766E-06 -4.57695246E-06  6.97231379E-06
 -5.05626704E-05 -5.72761986E-06 -1.53460572E-05  9.95688805E-01  1.51600438E-02
  2.96214688E-05 -4.37694625E-05  1.17080038E-05 -2.10266514E-02 -3.57685709E-05
  5.18762249E-05 -9.03652749E-06  1.58855362E-03  2.24091796E-05 -2.53314341E-05
 -3.59371401E-06  7.54497639E-03  7.53707146E-03  7.54954690E-03  8.47831008E-06
 -2.83584518E-06  4.28500567E-06 -8.70047360E-04 -1.22396860E-05 -1.02986063E-06
  1.04104075E-06 -4.44659129E-06  5.80824726E-05  3.60350359E-06 -2.96398683E-06
  2.14292168E-05 -8.34942401E-05  2.62714755E-05 -2.99736402E-05  3.60450267E-05
 -1.41569273E-05 -1.56368778E-05 -2.79774124E-05  5.26675567E-06 -1.11594219E-05
  1.27717712E-05  2.47919161E-02  3.79728935E-04  2.40023945E-06  5.64067051E-06
  8.41230468E-07 -4.81831232E-04 -1.03274476E-05 -2.09826178E-05 -3.68647757E-06
 -6.52185938E-05  1.19190318E-06 -6.42254888E-05 -2.20572556E-07  1.87935637E-04
  1.55875745E-04  1.88256176E-04 -2.89073041E-06  6.96124148E-07 -1.22974936E-06
 -1.85691697E-06 -1.95056261E-05  7.01434851E-06 -6.49311421E-05 -1.21379496E-06
 -4.04978116E-06 -5.25533708E-07  1.27022154E-09 -3.35505661E-06 -1.19374356E-05
 -9.94070359E-06 -5.31492729E-09 -7.48832742E-07 -5.66112118E-06 -2.53681679E-06
  2.15734610E-06  1.40393494E-09 -1.54703618E-06 -9.52964739E-11 -6.23832187E-07
  2.45571501E-07 -1.61490417E-05  1.60722516E-05  1.04132205E-05 -9.65386784E-09
  5.79681791E-05  2.53677672E-04  8.84484733E-06  8.05131353E-09  2.68150182E-05
 -2.17200193E-05 -2.95573853E-05 -5.07709514E-05  3.41600717E-09 -4.47776603E-06
  2.32245242E-09 -5.20787590E-06  7.68741902E-06  8.78938901E-06 -1.42208675E-09
 -1.42399238E-05  2.63888522E-05  6.50177125E-05 -1.25533498E-08 -4.40156687E-05
 -2.06044651E-05 -1.87089104E-05 -3.14171775E-05  3.18702095E-12  1.11154178E-05
 -2.52270882E-09  4.20625278E-06 -6.16016624E-05  4.20360507E-06 -6.16108225E-05
  8.51275014E-04  1.47257884E-05  2.43936875E-06 -3.40481806E-06  2.49314878E-06
  2.31267183E-05 -1.15385867E-05  1.65862876E-05 -9.45965597E-06 -9.55925417E-05
 -2.26536315E-05  2.90255292E-05 -4.83196999E-05 -1.68562573E-07 -3.66361864E-06
 -1.08026802E-05  7.88812195E-06 -1.08488204E-05  1.50227737E-05  9.95997127E-01
  1.51656617E-02 -4.56588813E-06  4.35336477E-09 -5.32798871E-05 -2.10311086E-02
  5.35657768E-06 -6.91800648E-09  6.24318672E-05  1.57375650E-03 -1.63042286E-06
  1.95472805E-09 -2.40616235E-05  7.55489251E-03  7.55517040E-03  7.53502009E-03
  5.08128338E-10 -2.15540371E-06  3.15760306E-09  8.24801309E-04  1.43219468E-05
  2.44006326E-06  3.40175015E-06  2.49367669E-06  2.36873199E-05 -1.15460114E-05
 -1.65776921E-05 -9.46444517E-06 -9.56383625E-05 -2.26723863E-05 -2.90022509E-05
 -4.83264726E-05 -3.78482445E-07 -3.85203056E-06 -1.10109111E-05 -7.88544711E-06
 -1.08587006E-05 -1.50149749E-05  1.05399719E-06  4.83626573E-07 -6.23303508E-07
  2.53554677E-07 -5.36357080E-05 -1.60822488E-04  9.06534253E-05 -5.03256394E-08
 -8.49161085E-05  3.78053230E-04 -3.10870994E-04  3.60998724E-07 -1.04020978E-04
 -1.99197210E-05 -1.02396844E-04 -7.11423701E-05 -1.97578592E-08  7.31394825E-06
  1.12641662E-08 -9.25047830E-07 -3.78186526E-04  9.93341688E-01  4.87275907E-02
 -6.87456448E-04  3.90356396E-08  3.34910736E-04 -1.84393354E-02 -4.07579422E-04
  2.79553047E-08  2.40909386E-04 -8.46517234E-03 -8.47510926E-03 -8.47197227E-03
  5.94565747E-08 -4.70660878E-06  2.67374993E-08  5.90248635E-04 -3.87977129E-04
  3.52471138E-05  4.17663789E-08  6.61212726E-06  5.11237046E-03 -2.01894884E-03
 -6.95012864E-08  1.00606595E-03 -2.70806734E-04 -1.40359746E-04 -1.72631841E-04
  1.00199434E-08  6.17783062E-05 -7.01816504E-09 -1.42181337E-04 -2.16404571E-04
 -1.42253622E-04 -2.16591692E-04 -7.39712006E-06 -1.59982745E-05 -1.10036117E-05
  1.95124426E-05 -7.81141021E-06  1.10074586E-04  1.54983073E-04 -2.56901969E-04
  9.20815486E-05  2.63618353E-03  8.93806714E-04 -1.32796360E-03  3.85579834E-04
 -1.13765031E-04 -9.68459114E-05 -1.21292576E-04 -2.72892327E-05  1.31866407E-05
  1.63425153E-06 -6.99588715E-06 -1.03015853E-05  1.78808018E-06 -5.86301765E-09
  2.28867129E-05  1.26535956E-04 -2.92560142E-05  4.81835934E-08 -3.10010337E-04
  2.52621961E-03 -1.66632081E-04  1.23764846E-07 -1.58494276E-03 -1.26900412E-04
 -1.00061546E-04 -7.58574809E-05 -2.34932333E-09  6.08821652E-06 -7.52426564E-09
 -7.40249228E-06 -1.59669979E-05 -1.09901912E-05 -1.94683106E-05 -7.80136890E-06
  1.10323723E-04  1.55041603E-04  2.56664991E-04  9.20857187E-05  2.63674057E-03
  8.94806105E-04  1.32751806E-03  3.85884895E-04 -1.13825998E-04 -9.71211646E-05
 -1.21352601E-04  2.71413539E-05  1.31340449E-05 -1.73667188E-06 -3.27226724E-05
  3.33318353E-04 -9.45762224E-07 -3.78427918E-04  3.41990612E-03 -1.37300536E-04
 -5.40658268E-05  2.12126576E-08 -8.44876762E-05  4.95097850E-03 -9.15775532E-05
 -1.71040653E-07  2.23281393E-03 -1.62498978E-04 -1.19675957E-04 -4.43682597E-04
  1.87674488E-08 -4.88463370E-05 -3.90748140E-09 -1.83058873E-04 -2.33096540E-05
 -8.45076072E-04 -2.09186923E-04 -9.21237525E-05  1.47808872E-08  1.67866478E-05
  4.76099792E-03  2.27076269E-03 -5.14826552E-07 -1.10539997E-03 -4.42221226E-04
 -1.41332340E-04 -1.76270759E-04  5.39031252E-08  1.13656562E-04  1.40672838E-08
  9.93018804E-01  5.02432732E-02 -3.44819703E-04 -4.56996883E-08  1.04118945E-04
 -1.97549056E-02  1.46179087E-03  4.31342052E-07  4.44202763E-04 -8.99894489E-03
 -8.86012352E-03 -9.01064690E-03  2.41552531E-08  2.49354993E-05 -2.33564790E-09
  7.50098705E-05  2.74416403E-03  7.50843125E-05  2.74479470E-03 -3.90500611E-07
 -4.60214672E-05  1.50226493E-05 -1.20414951E-05  5.71038416E-06 -5.65389377E-05
 -1.25200107E-04  9.39578425E-05 -2.90193957E-05  2.90765014E-04  1.75307089E-04
 -1.36340197E-04  6.49147484E-05 -4.58538763E-05 -1.22607862E-04 -1.12529437E-04
  6.14589208E-07 -5.78156813E-05 -2.58258534E-05  6.76707674E-07 -1.44836154E-05
 -4.20471888E-06  3.69870477E-09 -1.20441911E-05  1.38804635E-05  5.47160452E-06
 -2.10925622E-08  9.79202141E-05 -9.39108123E-05 -8.96273479E-05  7.54014745E-08
  3.41114642E-05  3.16863414E-05 -7.61691442E-05 -7.01539210E-05 -1.84390680E-08