CH2CMe3                                                                 
SP        RB3LYP                                                      6-31G(d)            
Number of atoms                            I               17
Info1-9                                    I   N=           9
          26          26           0           0           0         110
           1          18        -502
Full Title                                 C   N=           1
CH2CMe3     
Route                                      C   N=           2
# nosymm b3lyp/6-31G*   
Charge                                     I                0
Multiplicity                               I                1
Number of electrons                        I               42
Number of alpha electrons                  I               21
Number of beta electrons                   I               21
Number of basis functions                  I               99
Number of independent functions            I               99
Number of point charges in /Mol/           I                0
Number of translation vectors              I                0
Atomic numbers                             I   N=          17
           1           6           6           1           1           6
           1           1           1           6           1           1
           1           6           1           1           1
Nuclear charges                            R   N=          17
  1.00000000E+00  6.00000000E+00  6.00000000E+00  1.00000000E+00  1.00000000E+00
  6.00000000E+00  1.00000000E+00  1.00000000E+00  1.00000000E+00  6.00000000E+00
  1.00000000E+00  1.00000000E+00  1.00000000E+00  6.00000000E+00  1.00000000E+00
  1.00000000E+00  1.00000000E+00
Current cartesian coordinates              R   N=          51
  0.00000000E+00  0.00000000E+00  0.00000000E+00  0.00000000E+00  0.00000000E+00
  2.06446910E+00 -1.47001795E+00 -2.27048704E+00  3.10376178E+00 -8.37451029E-01
  1.77734411E+00  2.69833993E+00  1.96442700E+00 -3.67551731E-02  2.69832104E+00
 -4.21216174E+00 -2.15283269E+00  2.17515036E+00 -5.13546302E+00 -4.19046768E-01
  2.81053297E+00 -4.29833325E+00 -2.19758141E+00  1.12930033E-01 -5.30540609E+00
 -3.75161658E+00  2.88990147E+00 -2.40240882E-01 -4.72431531E+00  2.17537713E+00
 -1.25164120E+00 -6.37614381E+00  2.88997706E+00 -2.45494321E-01 -4.82127716E+00
  1.13137903E-01  1.71948070E+00 -4.85710637E+00  2.81102430E+00 -1.42753691E+00
 -2.20463009E+00  6.00033398E+00 -2.29424090E+00 -4.72280353E-01  6.71446148E+00
 -2.46365485E+00 -3.80488796E+00  6.79262055E+00  5.07731615E-01 -2.28636074E+00
  6.71461266E+00
Number of symbols in /Mol/                 I                0
Force Field                                I                0
Atom Types                                 C   N=          17
                                                            
                                                            
                                                            
                        
Int Atom Types                             I   N=          17
           0           0           0           0           0           0
           0           0           0           0           0           0
           0           0           0           0           0
MM charges                                 R   N=          17
  0.00000000E+00  0.00000000E+00  0.00000000E+00  0.00000000E+00  0.00000000E+00
  0.00000000E+00  0.00000000E+00  0.00000000E+00  0.00000000E+00  0.00000000E+00
  0.00000000E+00  0.00000000E+00  0.00000000E+00  0.00000000E+00  0.00000000E+00
  0.00000000E+00  0.00000000E+00
Integer atomic weights                     I   N=          17
           1          12          12           1           1          12
           1           1           1          12           1           1
           1          12           1           1           1
Real atomic weights                        R   N=          17
  1.00782504E+00  1.20000000E+01  1.20000000E+01  1.00782504E+00  1.00782504E+00
  1.20000000E+01  1.00782504E+00  1.00782504E+00  1.00782504E+00  1.20000000E+01
  1.00782504E+00  1.00782504E+00  1.00782504E+00  1.20000000E+01  1.00782504E+00
  1.00782504E+00  1.00782504E+00
Atom fragment info                         I   N=          17
           0           0           0           0           0           0
           0           0           0           0           0           0
           0           0           0           0           0
Atom residue num                           I   N=          17
           0           0           0           0           0           0
           0           0           0           0           0           0
           0           0           0           0           0
Nuclear spins                              I   N=          17
           1           0           0           1           1           0
           1           1           1           0           1           1
           1           0           1           1           1
Nuclear ZEff                               R   N=          17
 -1.00000000E+00 -3.60000000E+00 -3.60000000E+00 -1.00000000E+00 -1.00000000E+00
 -3.60000000E+00 -1.00000000E+00 -1.00000000E+00 -1.00000000E+00 -3.60000000E+00
 -1.00000000E+00 -1.00000000E+00 -1.00000000E+00 -3.60000000E+00 -1.00000000E+00
 -1.00000000E+00 -1.00000000E+00
Nuclear ZNuc                               R   N=          17
  1.00000000E+00  6.00000000E+00  6.00000000E+00  1.00000000E+00  1.00000000E+00
  6.00000000E+00  1.00000000E+00  1.00000000E+00  1.00000000E+00  6.00000000E+00
  1.00000000E+00  1.00000000E+00  1.00000000E+00  6.00000000E+00  1.00000000E+00
  1.00000000E+00  1.00000000E+00
Nuclear QMom                               R   N=          17
  0.00000000E+00  0.00000000E+00  0.00000000E+00  0.00000000E+00  0.00000000E+00
  0.00000000E+00  0.00000000E+00  0.00000000E+00  0.00000000E+00  0.00000000E+00
  0.00000000E+00  0.00000000E+00  0.00000000E+00  0.00000000E+00  0.00000000E+00
  0.00000000E+00  0.00000000E+00
Nuclear GFac                               R   N=          17
  2.79284600E+00  0.00000000E+00  0.00000000E+00  2.79284600E+00  2.79284600E+00
  0.00000000E+00  2.79284600E+00  2.79284600E+00  2.79284600E+00  0.00000000E+00
  2.79284600E+00  2.79284600E+00  2.79284600E+00  0.00000000E+00  2.79284600E+00
  2.79284600E+00  2.79284600E+00
MicOpt                                     I   N=          17
          -1          -1          -1          -1          -1          -1
          -1          -1          -1          -1          -1          -1
          -1          -1          -1          -1          -1
Number of residues                         I                0
Number of secondary structures             I                0
Number of contracted shells                I               44
Number of primitive shells                 I              103
Pure/Cartesian d shells                    I                1
Pure/Cartesian f shells                    I                0
Highest angular momentum                   I                2
Largest degree of contraction              I                6
Shell types                                I   N=          44
           0           0           0          -1          -1           2
           0          -1          -1           2           0           0
           0           0           0          -1          -1           2
           0           0           0           0           0           0
           0          -1          -1           2           0           0
           0           0           0           0           0          -1
          -1           2           0           0           0           0
           0           0
Number of primitives per shell             I   N=          44
           3           1           6           3           1           1
           6           3           1           1           3           1
           3           1           6           3           1           1
           3           1           3           1           3           1
           6           3           1           1           3           1
           3           1           3           1           6           3
           1           1           3           1           3           1
           3           1
Shell to atom map                          I   N=          44
           1           1           2           2           2           2
           3           3           3           3           4           4
           5           5           6           6           6           6
           7           7           8           8           9           9
          10          10          10          10          11          11
          12          12          13          13          14          14
          14          14          15          15          16          16
          17          17
Primitive exponents                        R   N=         103
  1.87311370E+01  2.82539436E+00  6.40121692E-01  1.61277759E-01  3.04752488E+03
  4.57369518E+02  1.03948685E+02  2.92101553E+01  9.28666296E+00  3.16392696E+00
  7.86827235E+00  1.88128854E+00  5.44249258E-01  1.68714478E-01  8.00000000E-01
  3.04752488E+03  4.57369518E+02  1.03948685E+02  2.92101553E+01  9.28666296E+00
  3.16392696E+00  7.86827235E+00  1.88128854E+00  5.44249258E-01  1.68714478E-01
  8.00000000E-01  1.87311370E+01  2.82539436E+00  6.40121692E-01  1.61277759E-01
  1.87311370E+01  2.82539436E+00  6.40121692E-01  1.61277759E-01  3.04752488E+03
  4.57369518E+02  1.03948685E+02  2.92101553E+01  9.28666296E+00  3.16392696E+00
  7.86827235E+00  1.88128854E+00  5.44249258E-01  1.68714478E-01  8.00000000E-01
  1.87311370E+01  2.82539436E+00  6.40121692E-01  1.61277759E-01  1.87311370E+01
  2.82539436E+00  6.40121692E-01  1.61277759E-01  1.87311370E+01  2.82539436E+00
  6.40121692E-01  1.61277759E-01  3.04752488E+03  4.57369518E+02  1.03948685E+02
  2.92101553E+01  9.28666296E+00  3.16392696E+00  7.86827235E+00  1.88128854E+00
  5.44249258E-01  1.68714478E-01  8.00000000E-01  1.87311370E+01  2.82539436E+00
  6.40121692E-01  1.61277759E-01  1.87311370E+01  2.82539436E+00  6.40121692E-01
  1.61277759E-01  1.87311370E+01  2.82539436E+00  6.40121692E-01  1.61277759E-01
  3.04752488E+03  4.57369518E+02  1.03948685E+02  2.92101553E+01  9.28666296E+00
  3.16392696E+00  7.86827235E+00  1.88128854E+00  5.44249258E-01  1.68714478E-01
  8.00000000E-01  1.87311370E+01  2.82539436E+00  6.40121692E-01  1.61277759E-01
  1.87311370E+01  2.82539436E+00  6.40121692E-01  1.61277759E-01  1.87311370E+01
  2.82539436E+00  6.40121692E-01  1.61277759E-01
Contraction coefficients                   R   N=         103
  3.34946043E-02  2.34726953E-01  8.13757326E-01  1.00000000E+00  1.83473713E-03
  1.40373228E-02  6.88426223E-02  2.32184443E-01  4.67941348E-01  3.62311985E-01
 -1.19332420E-01 -1.60854152E-01  1.14345644E+00  1.00000000E+00  1.00000000E+00
  1.83473713E-03  1.40373228E-02  6.88426223E-02  2.32184443E-01  4.67941348E-01
  3.62311985E-01 -1.19332420E-01 -1.60854152E-01  1.14345644E+00  1.00000000E+00
  1.00000000E+00  3.34946043E-02  2.34726953E-01  8.13757326E-01  1.00000000E+00
  3.34946043E-02  2.34726953E-01  8.13757326E-01  1.00000000E+00  1.83473713E-03
  1.40373228E-02  6.88426223E-02  2.32184443E-01  4.67941348E-01  3.62311985E-01
 -1.19332420E-01 -1.60854152E-01  1.14345644E+00  1.00000000E+00  1.00000000E+00
  3.34946043E-02  2.34726953E-01  8.13757326E-01  1.00000000E+00  3.34946043E-02
  2.34726953E-01  8.13757326E-01  1.00000000E+00  3.34946043E-02  2.34726953E-01
  8.13757326E-01  1.00000000E+00  1.83473713E-03  1.40373228E-02  6.88426223E-02
  2.32184443E-01  4.67941348E-01  3.62311985E-01 -1.19332420E-01 -1.60854152E-01
  1.14345644E+00  1.00000000E+00  1.00000000E+00  3.34946043E-02  2.34726953E-01
  8.13757326E-01  1.00000000E+00  3.34946043E-02  2.34726953E-01  8.13757326E-01
  1.00000000E+00  3.34946043E-02  2.34726953E-01  8.13757326E-01  1.00000000E+00
  1.83473713E-03  1.40373228E-02  6.88426223E-02  2.32184443E-01  4.67941348E-01
  3.62311985E-01 -1.19332420E-01 -1.60854152E-01  1.14345644E+00  1.00000000E+00
  1.00000000E+00  3.34946043E-02  2.34726953E-01  8.13757326E-01  1.00000000E+00
  3.34946043E-02  2.34726953E-01  8.13757326E-01  1.00000000E+00  3.34946043E-02
  2.34726953E-01  8.13757326E-01  1.00000000E+00
P(S=P) Contraction coefficients            R   N=         103
  0.00000000E+00  0.00000000E+00  0.00000000E+00  0.00000000E+00  0.00000000E+00
  0.00000000E+00  0.00000000E+00  0.00000000E+00  0.00000000E+00  0.00000000E+00
  6.89990666E-02  3.16423961E-01  7.44308291E-01  1.00000000E+00  0.00000000E+00
  0.00000000E+00  0.00000000E+00  0.00000000E+00  0.00000000E+00  0.00000000E+00
  0.00000000E+00  6.89990666E-02  3.16423961E-01  7.44308291E-01  1.00000000E+00
  0.00000000E+00  0.00000000E+00  0.00000000E+00  0.00000000E+00  0.00000000E+00
  0.00000000E+00  0.00000000E+00  0.00000000E+00  0.00000000E+00  0.00000000E+00
  0.00000000E+00  0.00000000E+00  0.00000000E+00  0.00000000E+00  0.00000000E+00
  6.89990666E-02  3.16423961E-01  7.44308291E-01  1.00000000E+00  0.00000000E+00
  0.00000000E+00  0.00000000E+00  0.00000000E+00  0.00000000E+00  0.00000000E+00
  0.00000000E+00  0.00000000E+00  0.00000000E+00  0.00000000E+00  0.00000000E+00
  0.00000000E+00  0.00000000E+00  0.00000000E+00  0.00000000E+00  0.00000000E+00
  0.00000000E+00  0.00000000E+00  0.00000000E+00  6.89990666E-02  3.16423961E-01
  7.44308291E-01  1.00000000E+00  0.00000000E+00  0.00000000E+00  0.00000000E+00
  0.00000000E+00  0.00000000E+00  0.00000000E+00  0.00000000E+00  0.00000000E+00
  0.00000000E+00  0.00000000E+00  0.00000000E+00  0.00000000E+00  0.00000000E+00
  0.00000000E+00  0.00000000E+00  0.00000000E+00  0.00000000E+00  0.00000000E+00
  0.00000000E+00  6.89990666E-02  3.16423961E-01  7.44308291E-01  1.00000000E+00
  0.00000000E+00  0.00000000E+00  0.00000000E+00  0.00000000E+00  0.00000000E+00
  0.00000000E+00  0.00000000E+00  0.00000000E+00  0.00000000E+00  0.00000000E+00
  0.00000000E+00  0.00000000E+00  0.00000000E+00
Coordinates of each shell                  R   N=         132
  0.00000000E+00  0.00000000E+00  0.00000000E+00  0.00000000E+00  0.00000000E+00
  0.00000000E+00  0.00000000E+00  0.00000000E+00  2.06446910E+00  0.00000000E+00
  0.00000000E+00  2.06446910E+00  0.00000000E+00  0.00000000E+00  2.06446910E+00
  0.00000000E+00  0.00000000E+00  2.06446910E+00 -1.47001795E+00 -2.27048704E+00
  3.10376178E+00 -1.47001795E+00 -2.27048704E+00  3.10376178E+00 -1.47001795E+00
 -2.27048704E+00  3.10376178E+00 -1.47001795E+00 -2.27048704E+00  3.10376178E+00
 -8.37451029E-01  1.77734411E+00  2.69833993E+00 -8.37451029E-01  1.77734411E+00
  2.69833993E+00  1.96442700E+00 -3.67551731E-02  2.69832104E+00  1.96442700E+00
 -3.67551731E-02  2.69832104E+00 -4.21216174E+00 -2.15283269E+00  2.17515036E+00
 -4.21216174E+00 -2.15283269E+00  2.17515036E+00 -4.21216174E+00 -2.15283269E+00
  2.17515036E+00 -4.21216174E+00 -2.15283269E+00  2.17515036E+00 -5.13546302E+00
 -4.19046768E-01  2.81053297E+00 -5.13546302E+00 -4.19046768E-01  2.81053297E+00
 -4.29833325E+00 -2.19758141E+00  1.12930033E-01 -4.29833325E+00 -2.19758141E+00
  1.12930033E-01 -5.30540609E+00 -3.75161658E+00  2.88990147E+00 -5.30540609E+00
 -3.75161658E+00  2.88990147E+00 -2.40240882E-01 -4.72431531E+00  2.17537713E+00
 -2.40240882E-01 -4.72431531E+00  2.17537713E+00 -2.40240882E-01 -4.72431531E+00
  2.17537713E+00 -2.40240882E-01 -4.72431531E+00  2.17537713E+00 -1.25164120E+00
 -6.37614381E+00  2.88997706E+00 -1.25164120E+00 -6.37614381E+00  2.88997706E+00
 -2.45494321E-01 -4.82127716E+00  1.13137903E-01 -2.45494321E-01 -4.82127716E+00
  1.13137903E-01  1.71948070E+00 -4.85710637E+00  2.81102430E+00  1.71948070E+00
 -4.85710637E+00  2.81102430E+00 -1.42753691E+00 -2.20463009E+00  6.00033398E+00
 -1.42753691E+00 -2.20463009E+00  6.00033398E+00 -1.42753691E+00 -2.20463009E+00
  6.00033398E+00 -1.42753691E+00 -2.20463009E+00  6.00033398E+00 -2.29424090E+00
 -4.72280353E-01  6.71446148E+00 -2.29424090E+00 -4.72280353E-01  6.71446148E+00
 -2.46365485E+00 -3.80488796E+00  6.79262055E+00 -2.46365485E+00 -3.80488796E+00
  6.79262055E+00  5.07731615E-01 -2.28636074E+00  6.71461266E+00  5.07731615E-01
 -2.28636074E+00  6.71461266E+00
Num ILSW                                   I              100
ILSW                                       I   N=         100
           0           1           0           0           2           0
           0           0           0           0         402          -1
           5           0           0           0           0           0
           0           0           1           0           0           0
           1           1           0           0           0           0
           0           0      100000           0          -1           0
           0           0           0           0           0           0
           0           0           0           1           0           0
           0 -2000000000           1           0           0           0
           0           0           4          52           0           0
           0           0           5           0           0           0
           0           0           0           0           0           1
           0           0           0           0           0           0
           0           0           0           0           0           0
           0           0           0           0           0           0
           0           0           0           0           0           0
           0           0           0           0
Num RLSW                                   I               52
RLSW                                       R   N=          52
  8.00000000E-01  7.20000000E-01  1.00000000E+00  8.10000000E-01  2.00000000E-01
  0.00000000E+00  0.00000000E+00  1.00000000E+00  0.00000000E+00  0.00000000E+00
  0.00000000E+00  0.00000000E+00  1.00000000E+00  0.00000000E+00  0.00000000E+00
  0.00000000E+00  0.00000000E+00  1.00000000E+00  0.00000000E+00  0.00000000E+00
  0.00000000E+00  0.00000000E+00  1.00000000E+00  0.00000000E+00  0.00000000E+00
  0.00000000E+00  0.00000000E+00  1.00000000E+00  0.00000000E+00  0.00000000E+00
  0.00000000E+00  0.00000000E+00  1.00000000E+00  0.00000000E+00  0.00000000E+00
  0.00000000E+00  0.00000000E+00  0.00000000E+00  1.00000000E+00  1.00000000E+00
  0.00000000E+00  1.00000000E+00  0.00000000E+00  0.00000000E+00  0.00000000E+00
  0.00000000E+00  0.00000000E+00  0.00000000E+00  0.00000000E+00  0.00000000E+00
  0.00000000E+00  0.00000000E+00
MxBond                                     I                4
NBond                                      I   N=          17
           1           4           4           1           1           4
           1           1           1           4           1           1
           1           4           1           1           1
IBond                                      I   N=          68
           2           0           0           0           1           3
           4           5           2           6          10          14
           2           0           0           0           2           0
           0           0           3           7           8           9
           6           0           0           0           6           0
           0           0           6           0           0           0
           3          11          12          13          10           0
           0           0          10           0           0           0
          10           0           0           0           3          15
          16          17          14           0           0           0
          14           0           0           0          14           0
           0           0
RBond                                      R   N=          68
  1.00000000E+00  0.00000000E+00  0.00000000E+00  0.00000000E+00  1.00000000E+00
  1.00000000E+00  1.00000000E+00  1.00000000E+00  1.00000000E+00  1.00000000E+00
  1.00000000E+00  1.00000000E+00  1.00000000E+00  0.00000000E+00  0.00000000E+00
  0.00000000E+00  1.00000000E+00  0.00000000E+00  0.00000000E+00  0.00000000E+00
  1.00000000E+00  1.00000000E+00  1.00000000E+00  1.00000000E+00  1.00000000E+00
  0.00000000E+00  0.00000000E+00  0.00000000E+00  1.00000000E+00  0.00000000E+00
  0.00000000E+00  0.00000000E+00  1.00000000E+00  0.00000000E+00  0.00000000E+00
  0.00000000E+00  1.00000000E+00  1.00000000E+00  1.00000000E+00  1.00000000E+00
  1.00000000E+00  0.00000000E+00  0.00000000E+00  0.00000000E+00  1.00000000E+00
  0.00000000E+00  0.00000000E+00  0.00000000E+00  1.00000000E+00  0.00000000E+00
  0.00000000E+00  0.00000000E+00  1.00000000E+00  1.00000000E+00  1.00000000E+00
  1.00000000E+00  1.00000000E+00  0.00000000E+00  0.00000000E+00  0.00000000E+00
  1.00000000E+00  0.00000000E+00  0.00000000E+00  0.00000000E+00  1.00000000E+00
  0.00000000E+00  0.00000000E+00  0.00000000E+00
Virial Ratio                               R      2.009816654579013E+00
SCF Energy                                 R     -1.977726840241436E+02
Total Energy                               R     -1.977726840241436E+02
RMS Density                                R      3.738436590621403E-09
Job Status                                 I                1
Nuclear derivative order                   I                0
External E-field                           R   N=          35
  0.00000000E+00  0.00000000E+00  0.00000000E+00  0.00000000E+00  0.00000000E+00
  0.00000000E+00  0.00000000E+00  0.00000000E+00  0.00000000E+00  0.00000000E+00
  0.00000000E+00  0.00000000E+00  0.00000000E+00  0.00000000E+00  0.00000000E+00
  0.00000000E+00  0.00000000E+00  0.00000000E+00  0.00000000E+00  0.00000000E+00
  0.00000000E+00  0.00000000E+00  0.00000000E+00  0.00000000E+00  0.00000000E+00
  0.00000000E+00  0.00000000E+00  0.00000000E+00  0.00000000E+00  0.00000000E+00
  0.00000000E+00  0.00000000E+00  0.00000000E+00  0.00000000E+00  0.00000000E+00
IOpCl                                      I                0
IROHF                                      I                0
Alpha Orbital Energies                     R   N=          99
 -1.01895135E+01 -1.01655248E+01 -1.01655244E+01 -1.01655231E+01 -1.01655070E+01
 -8.15394359E-01 -6.79028575E-01 -6.79026354E-01 -6.79022280E-01 -5.27825010E-01
 -4.43035769E-01 -4.43028285E-01 -4.43023182E-01 -3.95835787E-01 -3.95832724E-01
 -3.59124882E-01 -3.59122418E-01 -3.59119967E-01 -3.14899977E-01 -3.14890627E-01
 -3.14873989E-01  7.63699079E-02  1.40646422E-01  1.40647013E-01  1.40648867E-01
  1.66433832E-01  1.66439392E-01  1.66440654E-01  1.81601984E-01  1.81605684E-01
  2.21430185E-01  2.28414494E-01  2.28417305E-01  2.28418551E-01  2.53408982E-01
  2.53423390E-01  2.53439477E-01  5.15195288E-01  5.15197467E-01  5.15537078E-01
  5.15542252E-01  5.15543746E-01  6.27769589E-01  6.54478506E-01  6.54480655E-01
  6.54485211E-01  7.50514950E-01  7.50523983E-01  7.50541211E-01  8.71444238E-01
  8.71447939E-01  8.71448031E-01  9.06484730E-01  9.06499003E-01  9.06505832E-01
  9.16638584E-01  9.30567523E-01  9.30569140E-01  9.30572378E-01  9.56222914E-01
  9.56265021E-01  9.56269345E-01  9.97476927E-01  9.97483683E-01  9.97489709E-01
  1.40445750E+00  1.40447013E+00  1.49517391E+00  1.49518497E+00  1.49520337E+00
  1.70159359E+00  1.73534694E+00  1.73534979E+00  1.73535332E+00  1.87649859E+00
  1.87654332E+00  1.87658315E+00  2.09359754E+00  2.09362386E+00  2.11439005E+00
  2.11439452E+00  2.11440352E+00  2.25301661E+00  2.25563121E+00  2.25563708E+00
  2.25564423E+00  2.27710741E+00  2.27711860E+00  2.27712742E+00  2.60132004E+00
  2.60133411E+00  2.71981482E+00  2.71982496E+00  2.71983661E+00  4.17184378E+00
  4.31559363E+00  4.31559467E+00  4.31559932E+00  4.67011102E+00
Alpha MO coefficients                      R   N=        9801
 -1.91488018E-04 -1.51923053E-04  4.37386935E-03 -4.25617753E-05 -3.94500481E-05
 -6.09318800E-05  2.78996424E-05  5.88184041E-03 -1.29421340E-03 -1.99896038E-03
  9.14988726E-04 -1.86763604E-04 -3.00072751E-04 -1.45850516E-04 -1.45851306E-04
  6.67591411E-05  1.03112192E-04  9.93334361E-01  5.06482852E-02 -3.12483158E-08
 -6.04057593E-08 -3.81072111E-09 -2.66599809E-02  1.85769238E-09  6.82618473E-08
 -2.18471959E-07 -8.34498044E-03 -8.34501865E-03 -8.34509578E-03 -4.66097129E-08
  2.21568536E-08  3.03456334E-08 -1.91489536E-04 -1.51883664E-04 -1.91486279E-04
 -1.51892308E-04  4.37585832E-03 -4.24495682E-05  7.35012898E-05 -3.15489135E-06
  2.48998257E-05  5.88206936E-03  2.41438583E-03 -1.03589968E-04  8.17611378E-04
 -3.89641177E-04 -1.05500410E-04 -1.37613330E-04  1.41082862E-05 -1.11307935E-04
  4.77341310E-06 -1.91472051E-04 -1.51862747E-04 -1.91499874E-04 -1.51819350E-04
 -1.91481704E-04 -1.51843361E-04  4.37587946E-03 -4.24462611E-05 -3.29662908E-05
  6.57748425E-05  2.48983268E-05  5.88208460E-03 -1.08278225E-03  2.16054116E-03
  8.17405134E-04 -1.62232088E-04 -3.32920596E-04 -1.37599371E-04  1.31919587E-04
  4.99040530E-05 -9.95799150E-05 -1.91482558E-04 -1.51841668E-04 -1.91499330E-04
 -1.51823677E-04 -1.91472494E-04 -1.51861843E-04  4.37412154E-03 -4.25391305E-05
 -1.13395877E-06 -1.76185646E-06 -7.77668799E-05  5.88192467E-03 -3.74378392E-05
 -5.80334725E-05 -2.55017233E-03 -1.05050646E-04 -1.05145332E-04 -4.22476087E-04
 -1.17872479E-07 -5.37784920E-06 -8.33601908E-06 -1.91486165E-04 -1.51899617E-04
 -1.91506794E-04 -1.51909980E-04 -1.91484622E-04 -1.51900729E-04  7.59444713E-05
  4.48216263E-04 -6.06251897E-02 -3.09332384E-03 -6.21940707E-06 -4.83664589E-05
 -1.39079062E-04  1.13196808E-03  2.36150461E-05  2.78727001E-04  8.80020061E-04
  5.19071206E-04  5.12784539E-04  6.17318889E-04  1.72037197E-05 -1.43579407E-05
 -2.86260604E-05 -1.42547009E-04 -6.57776616E-06 -1.24762535E-06 -1.22868070E-05
 -3.73673463E-05  7.73837773E-05  6.23186836E-05  6.09460426E-04  1.85473270E-03
  7.14084332E-05  7.85267388E-05 -1.63230765E-04 -3.87082670E-05 -1.35202440E-06
  2.19434039E-05 -5.28555797E-05 -5.64203376E-04 -3.29930008E-05 -4.08096749E-04
 -2.69008719E-01 -1.36925549E-02  1.03196374E-05 -4.67896193E-05 -1.35020595E-04
  4.90758716E-03  7.02909368E-05  2.86720538E-04  8.89384933E-04  2.45399538E-03
  2.38980543E-03  2.49786436E-03  1.82506703E-05  4.58936958E-05 -7.53115796E-06
 -6.47181908E-05 -1.20931159E-03  6.40062996E-05 -1.96635419E-04 -2.42488981E-05
 -8.90631933E-04 -4.69437435E-01 -2.38871779E-02 -1.68309771E-05 -2.20381128E-05
 -1.31020357E-04  8.53935179E-03 -1.17853865E-06  3.50222392E-04  8.99102850E-04
  4.21866822E-03  4.28971522E-03  4.30850097E-03 -3.63551247E-05 -2.71351568E-05
  5.00312692E-05 -3.56925253E-05 -1.51086760E-03  5.25282840E-05 -8.16833006E-04
 -5.63349861E-05 -1.67339173E-03  8.30433752E-01  4.22295561E-02 -3.97776383E-06
 -4.49210904E-05 -8.74545051E-05 -1.50144358E-02  3.16251296E-05  2.91188575E-04
  9.99001856E-04 -7.51196069E-03 -7.51490441E-03 -7.66543927E-03  1.38717785E-05
 -3.99365651E-06 -2.12993614E-05 -1.86830537E-06  2.19291788E-03  3.86374523E-05
  2.51179817E-03  1.79787484E-05  2.34904633E-03 -9.16729982E-06  2.94059661E-05
  4.06937351E-02  2.07516712E-03  1.23656866E-04 -7.76085111E-05  2.11395238E-05
 -7.55669993E-04 -7.62517034E-04  5.01066361E-04 -1.39438751E-04 -3.06639155E-04
 -4.23750301E-04 -3.77433372E-04  2.45445507E-05  2.42738366E-05 -7.36079664E-06
  7.89514778E-05  3.62891393E-06  3.27471075E-05 -2.11575627E-05  5.83489034E-06
 -4.24455159E-05 -1.62242796E-03  1.04832542E-03 -2.89724090E-04 -1.16900941E-04
  9.73528377E-05  2.68370665E-05 -5.59274518E-05 -7.52641775E-05  5.04415986E-05
 -6.12033675E-05 -3.80299361E-04  7.63309539E-05  7.01747651E-04  7.31289421E-01
  3.72016836E-02  7.98555160E-05 -7.73937448E-05  7.45491337E-06 -1.32690916E-02
 -8.71835475E-04  4.99634284E-04 -1.72750019E-04 -6.73536809E-03 -6.62220337E-03
 -6.61563569E-03  4.13646201E-05 -4.47635354E-05 -1.13881693E-05 -2.17259955E-05
  1.75694230E-03  3.03389092E-05  2.16635003E-03  4.74235569E-05  2.30068206E-03
 -6.57439121E-01 -3.34347275E-02  1.05006592E-04 -4.40520372E-05  3.51685802E-05
  1.18944118E-02 -8.07818384E-04  5.77858367E-04 -1.05396729E-04  6.01118719E-03
  6.02239520E-03  5.92987319E-03 -6.78185453E-05 -2.33982469E-06  3.23119364E-05
 -3.19952822E-05 -1.99658982E-03 -4.90805246E-05 -2.13103235E-03  3.64012313E-05
 -1.45873258E-03 -1.31781935E-01 -6.69764958E-03  1.22473439E-04 -7.94056890E-05
  1.31954529E-05  2.36963225E-03 -7.66618829E-04  4.94642005E-04 -1.55399724E-04
  1.23281433E-03  1.15384893E-03  1.21711348E-03  2.06279278E-05  4.80730396E-05
 -3.04583396E-05 -7.11227410E-05 -9.13738823E-04 -1.93086371E-06 -3.70110274E-04
  6.65065133E-05  1.67867741E-04  3.30199952E-05  2.41437175E-03  8.29004105E-01
  4.21983814E-02 -5.72052991E-05 -7.72677641E-05  2.31098663E-05 -1.51310646E-02
  5.80143041E-04  8.26743489E-04 -3.02098385E-04 -7.53476488E-03 -7.58619234E-03
 -7.50246251E-03 -7.34500237E-05  3.12250550E-05  5.00898511E-05  4.74809693E-04
  2.17942309E-05 -2.18736097E-05 -3.08254390E-05  1.07552034E-05 -2.54001668E-04
  1.08532632E-03  1.52957233E-03 -5.37248904E-04  4.58359351E-05 -5.34882821E-05
  5.12386866E-05 -1.14136295E-04  5.60339723E-05  7.96560603E-05  2.53476319E-05
  2.35466501E-03  1.96832040E-05  2.30995595E-03 -3.74686603E-01 -1.90263213E-02
 -5.71964662E-05 -1.16593271E-04  4.90934700E-05  6.68011673E-03  5.58593946E-04
  7.19955155E-04 -2.38827776E-04  3.47213308E-03  3.40915883E-03  3.37715928E-03
  5.51526730E-05  7.30652085E-06 -2.39281999E-05 -4.34949432E-05 -1.37011306E-03
 -3.57870406E-05 -1.31042684E-03  7.00777158E-05 -4.77395600E-04 -3.17309050E-01
 -1.61078691E-02 -9.15885344E-05 -9.63819931E-05  4.79369179E-05  5.64049553E-03
  4.95311077E-04  7.56086309E-04 -2.41526861E-04  2.86016856E-03  2.97203612E-03
  2.85883034E-03  1.54636532E-05 -2.43995251E-05 -6.35406221E-06  7.33664540E-05
 -2.99841654E-04 -3.25364245E-05 -1.13276135E-03 -4.58867234E-05 -1.23735586E-03