cHex_eq_new_1 0.0                                                       
SP        RB3LYP                                                      6-31G(d)            
Number of atoms                            I               21
Info1-9                                    I   N=           9
          30          30           0           0           0         110
           1          18        -502
Full Title                                 C   N=           2
cHex_eq_new_1 0.0       
Route                                      C   N=           2
# nosymm b3lyp/6-31G*   
Charge                                     I                0
Multiplicity                               I                1
Number of electrons                        I               56
Number of alpha electrons                  I               28
Number of beta electrons                   I               28
Number of basis functions                  I              133
Number of independent functions            I              133
Number of point charges in /Mol/           I                0
Number of translation vectors              I                0
Atomic numbers                             I   N=          21
           6           6           6           6           6           1
           1           1           1           1           1           1
           1           1           6           1           1           6
           1           1           1
Nuclear charges                            R   N=          21
  6.00000000E+00  6.00000000E+00  6.00000000E+00  6.00000000E+00  6.00000000E+00
  1.00000000E+00  1.00000000E+00  1.00000000E+00  1.00000000E+00  1.00000000E+00
  1.00000000E+00  1.00000000E+00  1.00000000E+00  1.00000000E+00  6.00000000E+00
  1.00000000E+00  1.00000000E+00  6.00000000E+00  1.00000000E+00  1.00000000E+00
  1.00000000E+00
Current cartesian coordinates              R   N=          63
  2.58564903E+00  3.88716664E-05  7.90718990E+00  1.32106842E+00  2.39340594E+00
  6.86402919E+00  1.27258343E+00  2.38459761E+00  3.96333441E+00  0.00000000E+00
  0.00000000E+00  2.89393588E+00  1.27281573E+00 -2.38452311E+00  3.96329036E+00
  4.59414347E+00  1.22756609E-04  7.36654977E+00  2.52839057E+00  9.05178814E-06
  9.98099988E+00  2.29873809E+00  4.08643023E+00  7.55815222E+00 -6.29326628E-01
  2.49992202E+00  7.57831987E+00  3.02268761E-01  4.07792529E+00  3.25549847E+00
  3.22415044E+00  2.47805246E+00  3.24470587E+00 -1.98010485E+00 -1.21736157E-04
  3.54240066E+00  3.22439163E+00 -2.47777318E+00  3.24465936E+00  3.02647481E-01
 -4.07792480E+00  3.25535549E+00  1.32129656E+00 -2.39342149E+00  6.86396667E+00
 -6.29088315E-01 -2.50014213E+00  7.57825456E+00  2.29912762E+00 -4.08637070E+00
  7.55804549E+00  0.00000000E+00  0.00000000E+00  0.00000000E+00  1.94092778E+00
  2.15485470E-04 -7.35091576E-01 -9.58874493E-01 -1.67658197E+00 -7.54096835E-01
 -9.59205082E-01  1.67641577E+00 -7.54104224E-01
Number of symbols in /Mol/                 I                0
Force Field                                I                0
Atom Types                                 C   N=          21
                                                            
                                                            
                                                            
                                                            
            
Int Atom Types                             I   N=          21
           0           0           0           0           0           0
           0           0           0           0           0           0
           0           0           0           0           0           0
           0           0           0
MM charges                                 R   N=          21
  0.00000000E+00  0.00000000E+00  0.00000000E+00  0.00000000E+00  0.00000000E+00
  0.00000000E+00  0.00000000E+00  0.00000000E+00  0.00000000E+00  0.00000000E+00
  0.00000000E+00  0.00000000E+00  0.00000000E+00  0.00000000E+00  0.00000000E+00
  0.00000000E+00  0.00000000E+00  0.00000000E+00  0.00000000E+00  0.00000000E+00
  0.00000000E+00
Integer atomic weights                     I   N=          21
          12          12          12          12          12           1
           1           1           1           1           1           1
           1           1          12           1           1          12
           1           1           1
Real atomic weights                        R   N=          21
  1.20000000E+01  1.20000000E+01  1.20000000E+01  1.20000000E+01  1.20000000E+01
  1.00782504E+00  1.00782504E+00  1.00782504E+00  1.00782504E+00  1.00782504E+00
  1.00782504E+00  1.00782504E+00  1.00782504E+00  1.00782504E+00  1.20000000E+01
  1.00782504E+00  1.00782504E+00  1.20000000E+01  1.00782504E+00  1.00782504E+00
  1.00782504E+00
Atom fragment info                         I   N=          21
           0           0           0           0           0           0
           0           0           0           0           0           0
           0           0           0           0           0           0
           0           0           0
Atom residue num                           I   N=          21
           0           0           0           0           0           0
           0           0           0           0           0           0
           0           0           0           0           0           0
           0           0           0
Nuclear spins                              I   N=          21
           0           0           0           0           0           1
           1           1           1           1           1           1
           1           1           0           1           1           0
           1           1           1
Nuclear ZEff                               R   N=          21
 -3.60000000E+00 -3.60000000E+00 -3.60000000E+00 -3.60000000E+00 -3.60000000E+00
 -1.00000000E+00 -1.00000000E+00 -1.00000000E+00 -1.00000000E+00 -1.00000000E+00
 -1.00000000E+00 -1.00000000E+00 -1.00000000E+00 -1.00000000E+00 -3.60000000E+00
 -1.00000000E+00 -1.00000000E+00 -3.60000000E+00 -1.00000000E+00 -1.00000000E+00
 -1.00000000E+00
Nuclear ZNuc                               R   N=          21
  6.00000000E+00  6.00000000E+00  6.00000000E+00  6.00000000E+00  6.00000000E+00
  1.00000000E+00  1.00000000E+00  1.00000000E+00  1.00000000E+00  1.00000000E+00
  1.00000000E+00  1.00000000E+00  1.00000000E+00  1.00000000E+00  6.00000000E+00
  1.00000000E+00  1.00000000E+00  6.00000000E+00  1.00000000E+00  1.00000000E+00
  1.00000000E+00
Nuclear QMom                               R   N=          21
  0.00000000E+00  0.00000000E+00  0.00000000E+00  0.00000000E+00  0.00000000E+00
  0.00000000E+00  0.00000000E+00  0.00000000E+00  0.00000000E+00  0.00000000E+00
  0.00000000E+00  0.00000000E+00  0.00000000E+00  0.00000000E+00  0.00000000E+00
  0.00000000E+00  0.00000000E+00  0.00000000E+00  0.00000000E+00  0.00000000E+00
  0.00000000E+00
Nuclear GFac                               R   N=          21
  0.00000000E+00  0.00000000E+00  0.00000000E+00  0.00000000E+00  0.00000000E+00
  2.79284600E+00  2.79284600E+00  2.79284600E+00  2.79284600E+00  2.79284600E+00
  2.79284600E+00  2.79284600E+00  2.79284600E+00  2.79284600E+00  0.00000000E+00
  2.79284600E+00  2.79284600E+00  0.00000000E+00  2.79284600E+00  2.79284600E+00
  2.79284600E+00
MicOpt                                     I   N=          21
          -1          -1          -1          -1          -1          -1
          -1          -1          -1          -1          -1          -1
          -1          -1          -1          -1          -1          -1
          -1          -1          -1
Number of residues                         I                0
Number of secondary structures             I                0
Number of contracted shells                I               56
Number of primitive shells                 I              133
Pure/Cartesian d shells                    I                1
Pure/Cartesian f shells                    I                0
Highest angular momentum                   I                2
Largest degree of contraction              I                6
Shell types                                I   N=          56
           0          -1          -1           2           0          -1
          -1           2           0          -1          -1           2
           0          -1          -1           2           0          -1
          -1           2           0           0           0           0
           0           0           0           0           0           0
           0           0           0           0           0           0
           0           0           0          -1          -1           2
           0           0           0           0           0          -1
          -1           2           0           0           0           0
           0           0
Number of primitives per shell             I   N=          56
           6           3           1           1           6           3
           1           1           6           3           1           1
           6           3           1           1           6           3
           1           1           3           1           3           1
           3           1           3           1           3           1
           3           1           3           1           3           1
           3           1           6           3           1           1
           3           1           3           1           6           3
           1           1           3           1           3           1
           3           1
Shell to atom map                          I   N=          56
           1           1           1           1           2           2
           2           2           3           3           3           3
           4           4           4           4           5           5
           5           5           6           6           7           7
           8           8           9           9          10          10
          11          11          12          12          13          13
          14          14          15          15          15          15
          16          16          17          17          18          18
          18          18          19          19          20          20
          21          21
Primitive exponents                        R   N=         133
  3.04752488E+03  4.57369518E+02  1.03948685E+02  2.92101553E+01  9.28666296E+00
  3.16392696E+00  7.86827235E+00  1.88128854E+00  5.44249258E-01  1.68714478E-01
  8.00000000E-01  3.04752488E+03  4.57369518E+02  1.03948685E+02  2.92101553E+01
  9.28666296E+00  3.16392696E+00  7.86827235E+00  1.88128854E+00  5.44249258E-01
  1.68714478E-01  8.00000000E-01  3.04752488E+03  4.57369518E+02  1.03948685E+02
  2.92101553E+01  9.28666296E+00  3.16392696E+00  7.86827235E+00  1.88128854E+00
  5.44249258E-01  1.68714478E-01  8.00000000E-01  3.04752488E+03  4.57369518E+02
  1.03948685E+02  2.92101553E+01  9.28666296E+00  3.16392696E+00  7.86827235E+00
  1.88128854E+00  5.44249258E-01  1.68714478E-01  8.00000000E-01  3.04752488E+03
  4.57369518E+02  1.03948685E+02  2.92101553E+01  9.28666296E+00  3.16392696E+00
  7.86827235E+00  1.88128854E+00  5.44249258E-01  1.68714478E-01  8.00000000E-01
  1.87311370E+01  2.82539436E+00  6.40121692E-01  1.61277759E-01  1.87311370E+01
  2.82539436E+00  6.40121692E-01  1.61277759E-01  1.87311370E+01  2.82539436E+00
  6.40121692E-01  1.61277759E-01  1.87311370E+01  2.82539436E+00  6.40121692E-01
  1.61277759E-01  1.87311370E+01  2.82539436E+00  6.40121692E-01  1.61277759E-01
  1.87311370E+01  2.82539436E+00  6.40121692E-01  1.61277759E-01  1.87311370E+01
  2.82539436E+00  6.40121692E-01  1.61277759E-01  1.87311370E+01  2.82539436E+00
  6.40121692E-01  1.61277759E-01  1.87311370E+01  2.82539436E+00  6.40121692E-01
  1.61277759E-01  3.04752488E+03  4.57369518E+02  1.03948685E+02  2.92101553E+01
  9.28666296E+00  3.16392696E+00  7.86827235E+00  1.88128854E+00  5.44249258E-01
  1.68714478E-01  8.00000000E-01  1.87311370E+01  2.82539436E+00  6.40121692E-01
  1.61277759E-01  1.87311370E+01  2.82539436E+00  6.40121692E-01  1.61277759E-01
  3.04752488E+03  4.57369518E+02  1.03948685E+02  2.92101553E+01  9.28666296E+00
  3.16392696E+00  7.86827235E+00  1.88128854E+00  5.44249258E-01  1.68714478E-01
  8.00000000E-01  1.87311370E+01  2.82539436E+00  6.40121692E-01  1.61277759E-01
  1.87311370E+01  2.82539436E+00  6.40121692E-01  1.61277759E-01  1.87311370E+01
  2.82539436E+00  6.40121692E-01  1.61277759E-01
Contraction coefficients                   R   N=         133
  1.83473713E-03  1.40373228E-02  6.88426223E-02  2.32184443E-01  4.67941348E-01
  3.62311985E-01 -1.19332420E-01 -1.60854152E-01  1.14345644E+00  1.00000000E+00
  1.00000000E+00  1.83473713E-03  1.40373228E-02  6.88426223E-02  2.32184443E-01
  4.67941348E-01  3.62311985E-01 -1.19332420E-01 -1.60854152E-01  1.14345644E+00
  1.00000000E+00  1.00000000E+00  1.83473713E-03  1.40373228E-02  6.88426223E-02
  2.32184443E-01  4.67941348E-01  3.62311985E-01 -1.19332420E-01 -1.60854152E-01
  1.14345644E+00  1.00000000E+00  1.00000000E+00  1.83473713E-03  1.40373228E-02
  6.88426223E-02  2.32184443E-01  4.67941348E-01  3.62311985E-01 -1.19332420E-01
 -1.60854152E-01  1.14345644E+00  1.00000000E+00  1.00000000E+00  1.83473713E-03
  1.40373228E-02  6.88426223E-02  2.32184443E-01  4.67941348E-01  3.62311985E-01
 -1.19332420E-01 -1.60854152E-01  1.14345644E+00  1.00000000E+00  1.00000000E+00
  3.34946043E-02  2.34726953E-01  8.13757326E-01  1.00000000E+00  3.34946043E-02
  2.34726953E-01  8.13757326E-01  1.00000000E+00  3.34946043E-02  2.34726953E-01
  8.13757326E-01  1.00000000E+00  3.34946043E-02  2.34726953E-01  8.13757326E-01
  1.00000000E+00  3.34946043E-02  2.34726953E-01  8.13757326E-01  1.00000000E+00
  3.34946043E-02  2.34726953E-01  8.13757326E-01  1.00000000E+00  3.34946043E-02
  2.34726953E-01  8.13757326E-01  1.00000000E+00  3.34946043E-02  2.34726953E-01
  8.13757326E-01  1.00000000E+00  3.34946043E-02  2.34726953E-01  8.13757326E-01
  1.00000000E+00  1.83473713E-03  1.40373228E-02  6.88426223E-02  2.32184443E-01
  4.67941348E-01  3.62311985E-01 -1.19332420E-01 -1.60854152E-01  1.14345644E+00
  1.00000000E+00  1.00000000E+00  3.34946043E-02  2.34726953E-01  8.13757326E-01
  1.00000000E+00  3.34946043E-02  2.34726953E-01  8.13757326E-01  1.00000000E+00
  1.83473713E-03  1.40373228E-02  6.88426223E-02  2.32184443E-01  4.67941348E-01
  3.62311985E-01 -1.19332420E-01 -1.60854152E-01  1.14345644E+00  1.00000000E+00
  1.00000000E+00  3.34946043E-02  2.34726953E-01  8.13757326E-01  1.00000000E+00
  3.34946043E-02  2.34726953E-01  8.13757326E-01  1.00000000E+00  3.34946043E-02
  2.34726953E-01  8.13757326E-01  1.00000000E+00
P(S=P) Contraction coefficients            R   N=         133
  0.00000000E+00  0.00000000E+00  0.00000000E+00  0.00000000E+00  0.00000000E+00
  0.00000000E+00  6.89990666E-02  3.16423961E-01  7.44308291E-01  1.00000000E+00
  0.00000000E+00  0.00000000E+00  0.00000000E+00  0.00000000E+00  0.00000000E+00
  0.00000000E+00  0.00000000E+00  6.89990666E-02  3.16423961E-01  7.44308291E-01
  1.00000000E+00  0.00000000E+00  0.00000000E+00  0.00000000E+00  0.00000000E+00
  0.00000000E+00  0.00000000E+00  0.00000000E+00  6.89990666E-02  3.16423961E-01
  7.44308291E-01  1.00000000E+00  0.00000000E+00  0.00000000E+00  0.00000000E+00
  0.00000000E+00  0.00000000E+00  0.00000000E+00  0.00000000E+00  6.89990666E-02
  3.16423961E-01  7.44308291E-01  1.00000000E+00  0.00000000E+00  0.00000000E+00
  0.00000000E+00  0.00000000E+00  0.00000000E+00  0.00000000E+00  0.00000000E+00
  6.89990666E-02  3.16423961E-01  7.44308291E-01  1.00000000E+00  0.00000000E+00
  0.00000000E+00  0.00000000E+00  0.00000000E+00  0.00000000E+00  0.00000000E+00
  0.00000000E+00  0.00000000E+00  0.00000000E+00  0.00000000E+00  0.00000000E+00
  0.00000000E+00  0.00000000E+00  0.00000000E+00  0.00000000E+00  0.00000000E+00
  0.00000000E+00  0.00000000E+00  0.00000000E+00  0.00000000E+00  0.00000000E+00
  0.00000000E+00  0.00000000E+00  0.00000000E+00  0.00000000E+00  0.00000000E+00
  0.00000000E+00  0.00000000E+00  0.00000000E+00  0.00000000E+00  0.00000000E+00
  0.00000000E+00  0.00000000E+00  0.00000000E+00  0.00000000E+00  0.00000000E+00
  0.00000000E+00  0.00000000E+00  0.00000000E+00  0.00000000E+00  0.00000000E+00
  0.00000000E+00  0.00000000E+00  6.89990666E-02  3.16423961E-01  7.44308291E-01
  1.00000000E+00  0.00000000E+00  0.00000000E+00  0.00000000E+00  0.00000000E+00
  0.00000000E+00  0.00000000E+00  0.00000000E+00  0.00000000E+00  0.00000000E+00
  0.00000000E+00  0.00000000E+00  0.00000000E+00  0.00000000E+00  0.00000000E+00
  0.00000000E+00  6.89990666E-02  3.16423961E-01  7.44308291E-01  1.00000000E+00
  0.00000000E+00  0.00000000E+00  0.00000000E+00  0.00000000E+00  0.00000000E+00
  0.00000000E+00  0.00000000E+00  0.00000000E+00  0.00000000E+00  0.00000000E+00
  0.00000000E+00  0.00000000E+00  0.00000000E+00
Coordinates of each shell                  R   N=         168
  2.58564903E+00  3.88716664E-05  7.90718990E+00  2.58564903E+00  3.88716664E-05
  7.90718990E+00  2.58564903E+00  3.88716664E-05  7.90718990E+00  2.58564903E+00
  3.88716664E-05  7.90718990E+00  1.32106842E+00  2.39340594E+00  6.86402919E+00
  1.32106842E+00  2.39340594E+00  6.86402919E+00  1.32106842E+00  2.39340594E+00
  6.86402919E+00  1.32106842E+00  2.39340594E+00  6.86402919E+00  1.27258343E+00
  2.38459761E+00  3.96333441E+00  1.27258343E+00  2.38459761E+00  3.96333441E+00
  1.27258343E+00  2.38459761E+00  3.96333441E+00  1.27258343E+00  2.38459761E+00
  3.96333441E+00  0.00000000E+00  0.00000000E+00  2.89393588E+00  0.00000000E+00
  0.00000000E+00  2.89393588E+00  0.00000000E+00  0.00000000E+00  2.89393588E+00
  0.00000000E+00  0.00000000E+00  2.89393588E+00  1.27281573E+00 -2.38452311E+00
  3.96329036E+00  1.27281573E+00 -2.38452311E+00  3.96329036E+00  1.27281573E+00
 -2.38452311E+00  3.96329036E+00  1.27281573E+00 -2.38452311E+00  3.96329036E+00
  4.59414347E+00  1.22756609E-04  7.36654977E+00  4.59414347E+00  1.22756609E-04
  7.36654977E+00  2.52839057E+00  9.05178814E-06  9.98099988E+00  2.52839057E+00
  9.05178814E-06  9.98099988E+00  2.29873809E+00  4.08643023E+00  7.55815222E+00
  2.29873809E+00  4.08643023E+00  7.55815222E+00 -6.29326628E-01  2.49992202E+00
  7.57831987E+00 -6.29326628E-01  2.49992202E+00  7.57831987E+00  3.02268761E-01
  4.07792529E+00  3.25549847E+00  3.02268761E-01  4.07792529E+00  3.25549847E+00
  3.22415044E+00  2.47805246E+00  3.24470587E+00  3.22415044E+00  2.47805246E+00
  3.24470587E+00 -1.98010485E+00 -1.21736157E-04  3.54240066E+00 -1.98010485E+00
 -1.21736157E-04  3.54240066E+00  3.22439163E+00 -2.47777318E+00  3.24465936E+00
  3.22439163E+00 -2.47777318E+00  3.24465936E+00  3.02647481E-01 -4.07792480E+00
  3.25535549E+00  3.02647481E-01 -4.07792480E+00  3.25535549E+00  1.32129656E+00
 -2.39342149E+00  6.86396667E+00  1.32129656E+00 -2.39342149E+00  6.86396667E+00
  1.32129656E+00 -2.39342149E+00  6.86396667E+00  1.32129656E+00 -2.39342149E+00
  6.86396667E+00 -6.29088315E-01 -2.50014213E+00  7.57825456E+00 -6.29088315E-01
 -2.50014213E+00  7.57825456E+00  2.29912762E+00 -4.08637070E+00  7.55804549E+00
  2.29912762E+00 -4.08637070E+00  7.55804549E+00  0.00000000E+00  0.00000000E+00
  0.00000000E+00  0.00000000E+00  0.00000000E+00  0.00000000E+00  0.00000000E+00
  0.00000000E+00  0.00000000E+00  0.00000000E+00  0.00000000E+00  0.00000000E+00
  1.94092778E+00  2.15485470E-04 -7.35091576E-01  1.94092778E+00  2.15485470E-04
 -7.35091576E-01 -9.58874493E-01 -1.67658197E+00 -7.54096835E-01 -9.58874493E-01
 -1.67658197E+00 -7.54096835E-01 -9.59205082E-01  1.67641577E+00 -7.54104224E-01
 -9.59205082E-01  1.67641577E+00 -7.54104224E-01
Num ILSW                                   I              100
ILSW                                       I   N=         100
           0           1           0           0           2           0
           0           0           0           0         402          -1
           5           0           0           0           0           0
           0           0           1           0           0           0
           1           1           0           0           0           0
           0           0      100000           0          -1           0
           0           0           0           0           0           0
           0           0           0           1           0           0
           0 -2000000000           1           0           0           0
           0           0           4          52           0           0
           0           0           5           0           0           0
           0           0           0           0           0           1
           0           0           0           0           0           0
           0           0           0           0           0           0
           0           0           0           0           0           0
           0           0           0           0           0           0
           0           0           0           0
Num RLSW                                   I               52
RLSW                                       R   N=          52
  8.00000000E-01  7.20000000E-01  1.00000000E+00  8.10000000E-01  2.00000000E-01
  0.00000000E+00  0.00000000E+00  1.00000000E+00  0.00000000E+00  0.00000000E+00
  0.00000000E+00  0.00000000E+00  1.00000000E+00  0.00000000E+00  0.00000000E+00
  0.00000000E+00  0.00000000E+00  1.00000000E+00  0.00000000E+00  0.00000000E+00
  0.00000000E+00  0.00000000E+00  1.00000000E+00  0.00000000E+00  0.00000000E+00
  0.00000000E+00  0.00000000E+00  1.00000000E+00  0.00000000E+00  0.00000000E+00
  0.00000000E+00  0.00000000E+00  1.00000000E+00  0.00000000E+00  0.00000000E+00
  0.00000000E+00  0.00000000E+00  0.00000000E+00  1.00000000E+00  1.00000000E+00
  0.00000000E+00  1.00000000E+00  0.00000000E+00  0.00000000E+00  0.00000000E+00
  0.00000000E+00  0.00000000E+00  0.00000000E+00  0.00000000E+00  0.00000000E+00
  0.00000000E+00  0.00000000E+00
MxBond                                     I                4
NBond                                      I   N=          21
           4           4           4           4           4           1
           1           1           1           1           1           1
           1           1           4           1           1           4
           1           1           1
IBond                                      I   N=          84
           2           6           7          15           1           3
           8           9           2           4          10          11
           3           5          12          18           4          13
          14          15           1           0           0           0
           1           0           0           0           2           0
           0           0           2           0           0           0
           3           0           0           0           3           0
           0           0           4           0           0           0
           5           0           0           0           5           0
           0           0           1           5          16          17
          15           0           0           0          15           0
           0           0           4          19          20          21
          18           0           0           0          18           0
           0           0          18           0           0           0
RBond                                      R   N=          84
  1.00000000E+00  1.00000000E+00  1.00000000E+00  1.00000000E+00  1.00000000E+00
  1.00000000E+00  1.00000000E+00  1.00000000E+00  1.00000000E+00  1.00000000E+00
  1.00000000E+00  1.00000000E+00  1.00000000E+00  1.00000000E+00  1.00000000E+00
  1.00000000E+00  1.00000000E+00  1.00000000E+00  1.00000000E+00  1.00000000E+00
  1.00000000E+00  0.00000000E+00  0.00000000E+00  0.00000000E+00  1.00000000E+00
  0.00000000E+00  0.00000000E+00  0.00000000E+00  1.00000000E+00  0.00000000E+00
  0.00000000E+00  0.00000000E+00  1.00000000E+00  0.00000000E+00  0.00000000E+00
  0.00000000E+00  1.00000000E+00  0.00000000E+00  0.00000000E+00  0.00000000E+00
  1.00000000E+00  0.00000000E+00  0.00000000E+00  0.00000000E+00  1.00000000E+00
  0.00000000E+00  0.00000000E+00  0.00000000E+00  1.00000000E+00  0.00000000E+00
  0.00000000E+00  0.00000000E+00  1.00000000E+00  0.00000000E+00  0.00000000E+00
  0.00000000E+00  1.00000000E+00  1.00000000E+00  1.00000000E+00  1.00000000E+00
  1.00000000E+00  0.00000000E+00  0.00000000E+00  0.00000000E+00  1.00000000E+00
  0.00000000E+00  0.00000000E+00  0.00000000E+00  1.00000000E+00  1.00000000E+00
  1.00000000E+00  1.00000000E+00  1.00000000E+00  0.00000000E+00  0.00000000E+00
  0.00000000E+00  1.00000000E+00  0.00000000E+00  0.00000000E+00  0.00000000E+00
  1.00000000E+00  0.00000000E+00  0.00000000E+00  0.00000000E+00
Virial Ratio                               R      2.010248100396739E+00
SCF Energy                                 R     -2.751956052792633E+02
Total Energy                               R     -2.751956052792633E+02
RMS Density                                R      9.852634869038479E-09
Job Status                                 I                1
Nuclear derivative order                   I                0
External E-field                           R   N=          35
  0.00000000E+00  0.00000000E+00  0.00000000E+00  0.00000000E+00  0.00000000E+00
  0.00000000E+00  0.00000000E+00  0.00000000E+00  0.00000000E+00  0.00000000E+00
  0.00000000E+00  0.00000000E+00  0.00000000E+00  0.00000000E+00  0.00000000E+00
  0.00000000E+00  0.00000000E+00  0.00000000E+00  0.00000000E+00  0.00000000E+00
  0.00000000E+00  0.00000000E+00  0.00000000E+00  0.00000000E+00  0.00000000E+00
  0.00000000E+00  0.00000000E+00  0.00000000E+00  0.00000000E+00  0.00000000E+00
  0.00000000E+00  0.00000000E+00  0.00000000E+00  0.00000000E+00  0.00000000E+00
IOpCl                                      I                0
IROHF                                      I                0
Alpha Orbital Energies                     R   N=         133
 -1.01794526E+01 -1.01735504E+01 -1.01734581E+01 -1.01732321E+01 -1.01718283E+01
 -1.01718169E+01 -1.01679372E+01 -8.26010755E-01 -7.55567149E-01 -7.31975618E-01
 -6.67159989E-01 -6.01373449E-01 -5.77514815E-01 -5.44166877E-01 -4.65744046E-01
 -4.39818042E-01 -4.31970968E-01 -4.29308008E-01 -4.04771185E-01 -3.77861011E-01
 -3.69691444E-01 -3.59511631E-01 -3.42262665E-01 -3.34148187E-01 -3.24987903E-01
 -3.09449405E-01 -2.91186853E-01 -2.88100221E-01  8.76277130E-02  1.08841075E-01
  1.13541896E-01  1.32651732E-01  1.59526871E-01  1.65401161E-01  1.70002365E-01
  1.72471748E-01  1.78482716E-01  1.81869169E-01  1.88309001E-01  1.94173272E-01
  1.97732451E-01  1.99030713E-01  2.16797904E-01  2.57207606E-01  2.66613806E-01
  2.75286767E-01  2.78957866E-01  2.87816883E-01  2.92336559E-01  5.05150487E-01
  5.14159048E-01  5.26728036E-01  5.43287911E-01  5.51181815E-01  5.62130540E-01
  5.75697537E-01  6.41281145E-01  6.41712464E-01  6.58731433E-01  6.76407838E-01
  7.09811192E-01  7.11957635E-01  7.40773701E-01  7.54363180E-01  7.73703252E-01
  8.26417462E-01  8.34702187E-01  8.43995306E-01  8.61427793E-01  8.83109041E-01
  8.85950761E-01  9.02034380E-01  9.09488124E-01  9.24039965E-01  9.26426677E-01
  9.41510611E-01  9.42206967E-01  9.51444563E-01  9.73502884E-01  9.81360342E-01
  9.88824480E-01  9.92264029E-01  1.05897108E+00  1.17389370E+00  1.19142236E+00
  1.35545208E+00  1.37716402E+00  1.40129655E+00  1.41898632E+00  1.45310982E+00
  1.54135137E+00  1.61617879E+00  1.70217497E+00  1.70709265E+00  1.73737773E+00
  1.74359910E+00  1.81232050E+00  1.88958485E+00  1.89549247E+00  1.90395603E+00
  1.91365046E+00  1.97879053E+00  1.98963939E+00  1.99349485E+00  2.02423167E+00
  2.03196559E+00  2.08135955E+00  2.09269621E+00  2.15891788E+00  2.20861858E+00
  2.23345181E+00  2.24015832E+00  2.30725824E+00  2.33693803E+00  2.38450081E+00
  2.39065068E+00  2.39725937E+00  2.44639847E+00  2.45929128E+00  2.53147866E+00
  2.62977006E+00  2.65052649E+00  2.72015075E+00  2.72510538E+00  2.80382006E+00
  2.80766191E+00  4.13349323E+00  4.23537655E+00  4.26207987E+00  4.33792638E+00
  4.55467657E+00  4.55960922E+00  4.62630401E+00
Alpha MO coefficients                      R   N=       17689
  1.91633855E-04  2.02289022E-04  6.66750217E-05  2.22226454E-09 -7.13811382E-05
 -1.10921074E-03  4.10479263E-05  5.82117702E-09  9.32830203E-04  8.15715070E-06
  9.70827553E-05  2.40282927E-05 -3.92222400E-09 -2.84960383E-05 -1.22049980E-09
 -3.33641959E-04 -2.62645086E-04  7.69500986E-05  3.05745043E-05  1.46924920E-04
  8.86151892E-04 -2.08741303E-04 -3.37032295E-04 -2.78554521E-04 -9.33496449E-05
 -2.38679299E-05 -9.12432503E-05  3.32446030E-05 -8.88357096E-07  2.00999780E-05
  1.33553789E-02  3.24164536E-04 -1.10454974E-05  2.20072213E-05 -7.87100348E-05
  5.54051824E-03 -8.27714710E-04 -2.58839405E-03 -1.12956938E-03 -3.07533599E-04
 -4.08020571E-04 -3.02359401E-04 -1.34792358E-04 -8.31016093E-05 -5.41947919E-05
  9.93000299E-01  5.05338276E-02  9.96679026E-05  1.92630951E-09 -8.15856715E-07
 -2.38789762E-02 -1.89069394E-03 -6.03476752E-09 -2.76467188E-04 -8.55001603E-03
 -8.69356844E-03 -8.62989536E-03  2.10553072E-08 -9.27038006E-05  5.30559318E-09
  1.33557247E-02  3.24169734E-04 -1.10522342E-05 -2.19863637E-05 -7.87193685E-05
  5.54057607E-03 -8.27987493E-04  2.58834918E-03 -1.12948300E-03 -3.07561475E-04
 -4.07999865E-04 -3.02358575E-04  1.34794309E-04 -8.30998064E-05  5.41804742E-05
  1.54446827E-04  1.41706370E-04 -2.65083591E-05 -3.22339308E-04 -4.13223455E-05
  3.63578319E-04 -4.72198000E-05 -3.14334703E-04 -1.35645281E-04  8.12925926E-05
 -2.54983309E-04 -6.82888288E-05  1.79578424E-04  2.90526894E-03 -2.54985233E-04