cHex_eq                                                                 
SP        RB3LYP                                                      6-31G(d)            
Number of atoms                            I               18
Info1-9                                    I   N=           9
          27          27           0           0           0         110
           1          18        -502
Full Title                                 C   N=           1
cHex_eq     
Route                                      C   N=           2
# nosymm b3lyp/6-31G*   
Charge                                     I                0
Multiplicity                               I                1
Number of electrons                        I               48
Number of alpha electrons                  I               24
Number of beta electrons                   I               24
Number of basis functions                  I              114
Number of independent functions            I              114
Number of point charges in /Mol/           I                0
Number of translation vectors              I                0
Atomic numbers                             I   N=          18
           1           6           6           6           6           6
           1           1           1           1           1           1
           1           1           1           6           1           1
Nuclear charges                            R   N=          18
  1.00000000E+00  6.00000000E+00  6.00000000E+00  6.00000000E+00  6.00000000E+00
  6.00000000E+00  1.00000000E+00  1.00000000E+00  1.00000000E+00  1.00000000E+00
  1.00000000E+00  1.00000000E+00  1.00000000E+00  1.00000000E+00  1.00000000E+00
  6.00000000E+00  1.00000000E+00  1.00000000E+00
Current cartesian coordinates              R   N=          54
  0.00000000E+00  0.00000000E+00  0.00000000E+00  0.00000000E+00  0.00000000E+00
  2.06554624E+00 -3.07836386E-02 -2.69552424E+00  6.95732908E+00  2.37319366E+00
 -1.43830835E+00  5.95569865E+00  2.37457316E+00 -1.31220692E+00  3.06691212E+00
 -2.40390171E+00 -1.25765053E+00  3.06693101E+00 -5.34414548E-02 -4.68056815E+00
  6.36637393E+00 -3.07836386E-02 -2.69578880E+00  9.02274305E+00  4.04354148E+00
 -2.44974646E+00  6.62885689E+00  2.49999428E+00  4.83675402E-01  6.71746615E+00
  4.06740872E+00 -3.39016867E-01  2.39381057E+00  2.45717309E+00 -3.23642055E+00
  2.30476667E+00  2.26578162E-02  1.98489273E+00  2.65648250E+00 -2.53043777E+00
 -3.17948310E+00  2.30476667E+00 -4.07407945E+00 -2.46061239E-01  2.39381057E+00
 -2.40541349E+00 -1.38377085E+00  5.95571755E+00 -2.48829687E+00  5.40612850E-01
  6.71748504E+00 -4.09841912E+00 -2.35679083E+00  6.62885689E+00
Number of symbols in /Mol/                 I                0
Force Field                                I                0
Atom Types                                 C   N=          18
                                                            
                                                            
                                                            
                                    
Int Atom Types                             I   N=          18
           0           0           0           0           0           0
           0           0           0           0           0           0
           0           0           0           0           0           0
MM charges                                 R   N=          18
  0.00000000E+00  0.00000000E+00  0.00000000E+00  0.00000000E+00  0.00000000E+00
  0.00000000E+00  0.00000000E+00  0.00000000E+00  0.00000000E+00  0.00000000E+00
  0.00000000E+00  0.00000000E+00  0.00000000E+00  0.00000000E+00  0.00000000E+00
  0.00000000E+00  0.00000000E+00  0.00000000E+00
Integer atomic weights                     I   N=          18
           1          12          12          12          12          12
           1           1           1           1           1           1
           1           1           1          12           1           1
Real atomic weights                        R   N=          18
  1.00782504E+00  1.20000000E+01  1.20000000E+01  1.20000000E+01  1.20000000E+01
  1.20000000E+01  1.00782504E+00  1.00782504E+00  1.00782504E+00  1.00782504E+00
  1.00782504E+00  1.00782504E+00  1.00782504E+00  1.00782504E+00  1.00782504E+00
  1.20000000E+01  1.00782504E+00  1.00782504E+00
Atom fragment info                         I   N=          18
           0           0           0           0           0           0
           0           0           0           0           0           0
           0           0           0           0           0           0
Atom residue num                           I   N=          18
           0           0           0           0           0           0
           0           0           0           0           0           0
           0           0           0           0           0           0
Nuclear spins                              I   N=          18
           1           0           0           0           0           0
           1           1           1           1           1           1
           1           1           1           0           1           1
Nuclear ZEff                               R   N=          18
 -1.00000000E+00 -3.60000000E+00 -3.60000000E+00 -3.60000000E+00 -3.60000000E+00
 -3.60000000E+00 -1.00000000E+00 -1.00000000E+00 -1.00000000E+00 -1.00000000E+00
 -1.00000000E+00 -1.00000000E+00 -1.00000000E+00 -1.00000000E+00 -1.00000000E+00
 -3.60000000E+00 -1.00000000E+00 -1.00000000E+00
Nuclear ZNuc                               R   N=          18
  1.00000000E+00  6.00000000E+00  6.00000000E+00  6.00000000E+00  6.00000000E+00
  6.00000000E+00  1.00000000E+00  1.00000000E+00  1.00000000E+00  1.00000000E+00
  1.00000000E+00  1.00000000E+00  1.00000000E+00  1.00000000E+00  1.00000000E+00
  6.00000000E+00  1.00000000E+00  1.00000000E+00
Nuclear QMom                               R   N=          18
  0.00000000E+00  0.00000000E+00  0.00000000E+00  0.00000000E+00  0.00000000E+00
  0.00000000E+00  0.00000000E+00  0.00000000E+00  0.00000000E+00  0.00000000E+00
  0.00000000E+00  0.00000000E+00  0.00000000E+00  0.00000000E+00  0.00000000E+00
  0.00000000E+00  0.00000000E+00  0.00000000E+00
Nuclear GFac                               R   N=          18
  2.79284600E+00  0.00000000E+00  0.00000000E+00  0.00000000E+00  0.00000000E+00
  0.00000000E+00  2.79284600E+00  2.79284600E+00  2.79284600E+00  2.79284600E+00
  2.79284600E+00  2.79284600E+00  2.79284600E+00  2.79284600E+00  2.79284600E+00
  0.00000000E+00  2.79284600E+00  2.79284600E+00
MicOpt                                     I   N=          18
          -1          -1          -1          -1          -1          -1
          -1          -1          -1          -1          -1          -1
          -1          -1          -1          -1          -1          -1
Number of residues                         I                0
Number of secondary structures             I                0
Number of contracted shells                I               48
Number of primitive shells                 I              114
Pure/Cartesian d shells                    I                1
Pure/Cartesian f shells                    I                0
Highest angular momentum                   I                2
Largest degree of contraction              I                6
Shell types                                I   N=          48
           0           0           0          -1          -1           2
           0          -1          -1           2           0          -1
          -1           2           0          -1          -1           2
           0          -1          -1           2           0           0
           0           0           0           0           0           0
           0           0           0           0           0           0
           0           0           0           0           0          -1
          -1           2           0           0           0           0
Number of primitives per shell             I   N=          48
           3           1           6           3           1           1
           6           3           1           1           6           3
           1           1           6           3           1           1
           6           3           1           1           3           1
           3           1           3           1           3           1
           3           1           3           1           3           1
           3           1           3           1           6           3
           1           1           3           1           3           1
Shell to atom map                          I   N=          48
           1           1           2           2           2           2
           3           3           3           3           4           4
           4           4           5           5           5           5
           6           6           6           6           7           7
           8           8           9           9          10          10
          11          11          12          12          13          13
          14          14          15          15          16          16
          16          16          17          17          18          18
Primitive exponents                        R   N=         114
  1.87311370E+01  2.82539436E+00  6.40121692E-01  1.61277759E-01  3.04752488E+03
  4.57369518E+02  1.03948685E+02  2.92101553E+01  9.28666296E+00  3.16392696E+00
  7.86827235E+00  1.88128854E+00  5.44249258E-01  1.68714478E-01  8.00000000E-01
  3.04752488E+03  4.57369518E+02  1.03948685E+02  2.92101553E+01  9.28666296E+00
  3.16392696E+00  7.86827235E+00  1.88128854E+00  5.44249258E-01  1.68714478E-01
  8.00000000E-01  3.04752488E+03  4.57369518E+02  1.03948685E+02  2.92101553E+01
  9.28666296E+00  3.16392696E+00  7.86827235E+00  1.88128854E+00  5.44249258E-01
  1.68714478E-01  8.00000000E-01  3.04752488E+03  4.57369518E+02  1.03948685E+02
  2.92101553E+01  9.28666296E+00  3.16392696E+00  7.86827235E+00  1.88128854E+00
  5.44249258E-01  1.68714478E-01  8.00000000E-01  3.04752488E+03  4.57369518E+02
  1.03948685E+02  2.92101553E+01  9.28666296E+00  3.16392696E+00  7.86827235E+00
  1.88128854E+00  5.44249258E-01  1.68714478E-01  8.00000000E-01  1.87311370E+01
  2.82539436E+00  6.40121692E-01  1.61277759E-01  1.87311370E+01  2.82539436E+00
  6.40121692E-01  1.61277759E-01  1.87311370E+01  2.82539436E+00  6.40121692E-01
  1.61277759E-01  1.87311370E+01  2.82539436E+00  6.40121692E-01  1.61277759E-01
  1.87311370E+01  2.82539436E+00  6.40121692E-01  1.61277759E-01  1.87311370E+01
  2.82539436E+00  6.40121692E-01  1.61277759E-01  1.87311370E+01  2.82539436E+00
  6.40121692E-01  1.61277759E-01  1.87311370E+01  2.82539436E+00  6.40121692E-01
  1.61277759E-01  1.87311370E+01  2.82539436E+00  6.40121692E-01  1.61277759E-01
  3.04752488E+03  4.57369518E+02  1.03948685E+02  2.92101553E+01  9.28666296E+00
  3.16392696E+00  7.86827235E+00  1.88128854E+00  5.44249258E-01  1.68714478E-01
  8.00000000E-01  1.87311370E+01  2.82539436E+00  6.40121692E-01  1.61277759E-01
  1.87311370E+01  2.82539436E+00  6.40121692E-01  1.61277759E-01
Contraction coefficients                   R   N=         114
  3.34946043E-02  2.34726953E-01  8.13757326E-01  1.00000000E+00  1.83473713E-03
  1.40373228E-02  6.88426223E-02  2.32184443E-01  4.67941348E-01  3.62311985E-01
 -1.19332420E-01 -1.60854152E-01  1.14345644E+00  1.00000000E+00  1.00000000E+00
  1.83473713E-03  1.40373228E-02  6.88426223E-02  2.32184443E-01  4.67941348E-01
  3.62311985E-01 -1.19332420E-01 -1.60854152E-01  1.14345644E+00  1.00000000E+00
  1.00000000E+00  1.83473713E-03  1.40373228E-02  6.88426223E-02  2.32184443E-01
  4.67941348E-01  3.62311985E-01 -1.19332420E-01 -1.60854152E-01  1.14345644E+00
  1.00000000E+00  1.00000000E+00  1.83473713E-03  1.40373228E-02  6.88426223E-02
  2.32184443E-01  4.67941348E-01  3.62311985E-01 -1.19332420E-01 -1.60854152E-01
  1.14345644E+00  1.00000000E+00  1.00000000E+00  1.83473713E-03  1.40373228E-02
  6.88426223E-02  2.32184443E-01  4.67941348E-01  3.62311985E-01 -1.19332420E-01
 -1.60854152E-01  1.14345644E+00  1.00000000E+00  1.00000000E+00  3.34946043E-02
  2.34726953E-01  8.13757326E-01  1.00000000E+00  3.34946043E-02  2.34726953E-01
  8.13757326E-01  1.00000000E+00  3.34946043E-02  2.34726953E-01  8.13757326E-01
  1.00000000E+00  3.34946043E-02  2.34726953E-01  8.13757326E-01  1.00000000E+00
  3.34946043E-02  2.34726953E-01  8.13757326E-01  1.00000000E+00  3.34946043E-02
  2.34726953E-01  8.13757326E-01  1.00000000E+00  3.34946043E-02  2.34726953E-01
  8.13757326E-01  1.00000000E+00  3.34946043E-02  2.34726953E-01  8.13757326E-01
  1.00000000E+00  3.34946043E-02  2.34726953E-01  8.13757326E-01  1.00000000E+00
  1.83473713E-03  1.40373228E-02  6.88426223E-02  2.32184443E-01  4.67941348E-01
  3.62311985E-01 -1.19332420E-01 -1.60854152E-01  1.14345644E+00  1.00000000E+00
  1.00000000E+00  3.34946043E-02  2.34726953E-01  8.13757326E-01  1.00000000E+00
  3.34946043E-02  2.34726953E-01  8.13757326E-01  1.00000000E+00
P(S=P) Contraction coefficients            R   N=         114
  0.00000000E+00  0.00000000E+00  0.00000000E+00  0.00000000E+00  0.00000000E+00
  0.00000000E+00  0.00000000E+00  0.00000000E+00  0.00000000E+00  0.00000000E+00
  6.89990666E-02  3.16423961E-01  7.44308291E-01  1.00000000E+00  0.00000000E+00
  0.00000000E+00  0.00000000E+00  0.00000000E+00  0.00000000E+00  0.00000000E+00
  0.00000000E+00  6.89990666E-02  3.16423961E-01  7.44308291E-01  1.00000000E+00
  0.00000000E+00  0.00000000E+00  0.00000000E+00  0.00000000E+00  0.00000000E+00
  0.00000000E+00  0.00000000E+00  6.89990666E-02  3.16423961E-01  7.44308291E-01
  1.00000000E+00  0.00000000E+00  0.00000000E+00  0.00000000E+00  0.00000000E+00
  0.00000000E+00  0.00000000E+00  0.00000000E+00  6.89990666E-02  3.16423961E-01
  7.44308291E-01  1.00000000E+00  0.00000000E+00  0.00000000E+00  0.00000000E+00
  0.00000000E+00  0.00000000E+00  0.00000000E+00  0.00000000E+00  6.89990666E-02
  3.16423961E-01  7.44308291E-01  1.00000000E+00  0.00000000E+00  0.00000000E+00
  0.00000000E+00  0.00000000E+00  0.00000000E+00  0.00000000E+00  0.00000000E+00
  0.00000000E+00  0.00000000E+00  0.00000000E+00  0.00000000E+00  0.00000000E+00
  0.00000000E+00  0.00000000E+00  0.00000000E+00  0.00000000E+00  0.00000000E+00
  0.00000000E+00  0.00000000E+00  0.00000000E+00  0.00000000E+00  0.00000000E+00
  0.00000000E+00  0.00000000E+00  0.00000000E+00  0.00000000E+00  0.00000000E+00
  0.00000000E+00  0.00000000E+00  0.00000000E+00  0.00000000E+00  0.00000000E+00
  0.00000000E+00  0.00000000E+00  0.00000000E+00  0.00000000E+00  0.00000000E+00
  0.00000000E+00  0.00000000E+00  0.00000000E+00  0.00000000E+00  0.00000000E+00
  0.00000000E+00  6.89990666E-02  3.16423961E-01  7.44308291E-01  1.00000000E+00
  0.00000000E+00  0.00000000E+00  0.00000000E+00  0.00000000E+00  0.00000000E+00
  0.00000000E+00  0.00000000E+00  0.00000000E+00  0.00000000E+00
Coordinates of each shell                  R   N=         144
  0.00000000E+00  0.00000000E+00  0.00000000E+00  0.00000000E+00  0.00000000E+00
  0.00000000E+00  0.00000000E+00  0.00000000E+00  2.06554624E+00  0.00000000E+00
  0.00000000E+00  2.06554624E+00  0.00000000E+00  0.00000000E+00  2.06554624E+00
  0.00000000E+00  0.00000000E+00  2.06554624E+00 -3.07836386E-02 -2.69552424E+00
  6.95732908E+00 -3.07836386E-02 -2.69552424E+00  6.95732908E+00 -3.07836386E-02
 -2.69552424E+00  6.95732908E+00 -3.07836386E-02 -2.69552424E+00  6.95732908E+00
  2.37319366E+00 -1.43830835E+00  5.95569865E+00  2.37319366E+00 -1.43830835E+00
  5.95569865E+00  2.37319366E+00 -1.43830835E+00  5.95569865E+00  2.37319366E+00
 -1.43830835E+00  5.95569865E+00  2.37457316E+00 -1.31220692E+00  3.06691212E+00
  2.37457316E+00 -1.31220692E+00  3.06691212E+00  2.37457316E+00 -1.31220692E+00
  3.06691212E+00  2.37457316E+00 -1.31220692E+00  3.06691212E+00 -2.40390171E+00
 -1.25765053E+00  3.06693101E+00 -2.40390171E+00 -1.25765053E+00  3.06693101E+00
 -2.40390171E+00 -1.25765053E+00  3.06693101E+00 -2.40390171E+00 -1.25765053E+00
  3.06693101E+00 -5.34414548E-02 -4.68056815E+00  6.36637393E+00 -5.34414548E-02
 -4.68056815E+00  6.36637393E+00 -3.07836386E-02 -2.69578880E+00  9.02274305E+00
 -3.07836386E-02 -2.69578880E+00  9.02274305E+00  4.04354148E+00 -2.44974646E+00
  6.62885689E+00  4.04354148E+00 -2.44974646E+00  6.62885689E+00  2.49999428E+00
  4.83675402E-01  6.71746615E+00  2.49999428E+00  4.83675402E-01  6.71746615E+00
  4.06740872E+00 -3.39016867E-01  2.39381057E+00  4.06740872E+00 -3.39016867E-01
  2.39381057E+00  2.45717309E+00 -3.23642055E+00  2.30476667E+00  2.45717309E+00
 -3.23642055E+00  2.30476667E+00  2.26578162E-02  1.98489273E+00  2.65648250E+00
  2.26578162E-02  1.98489273E+00  2.65648250E+00 -2.53043777E+00 -3.17948310E+00
  2.30476667E+00 -2.53043777E+00 -3.17948310E+00  2.30476667E+00 -4.07407945E+00
 -2.46061239E-01  2.39381057E+00 -4.07407945E+00 -2.46061239E-01  2.39381057E+00
 -2.40541349E+00 -1.38377085E+00  5.95571755E+00 -2.40541349E+00 -1.38377085E+00
  5.95571755E+00 -2.40541349E+00 -1.38377085E+00  5.95571755E+00 -2.40541349E+00
 -1.38377085E+00  5.95571755E+00 -2.48829687E+00  5.40612850E-01  6.71748504E+00
 -2.48829687E+00  5.40612850E-01  6.71748504E+00 -4.09841912E+00 -2.35679083E+00
  6.62885689E+00 -4.09841912E+00 -2.35679083E+00  6.62885689E+00
Num ILSW                                   I              100
ILSW                                       I   N=         100
           0           1           0           0           2           0
           0           0           0           0         402          -1
           5           0           0           0           0           0
           0           0           1           0           0           0
           1           1           0           0           0           0
           0           0      100000           0          -1           0
           0           0           0           0           0           0
           0           0           0           1           0           0
           0 -2000000000           1           0           0           0
           0           0           4          52           0           0
           0           0           5           0           0           0
           0           0           0           0           0           1
           0           0           0           0           0           0
           0           0           0           0           0           0
           0           0           0           0           0           0
           0           0           0           0           0           0
           0           0           0           0
Num RLSW                                   I               52
RLSW                                       R   N=          52
  8.00000000E-01  7.20000000E-01  1.00000000E+00  8.10000000E-01  2.00000000E-01
  0.00000000E+00  0.00000000E+00  1.00000000E+00  0.00000000E+00  0.00000000E+00
  0.00000000E+00  0.00000000E+00  1.00000000E+00  0.00000000E+00  0.00000000E+00
  0.00000000E+00  0.00000000E+00  1.00000000E+00  0.00000000E+00  0.00000000E+00
  0.00000000E+00  0.00000000E+00  1.00000000E+00  0.00000000E+00  0.00000000E+00
  0.00000000E+00  0.00000000E+00  1.00000000E+00  0.00000000E+00  0.00000000E+00
  0.00000000E+00  0.00000000E+00  1.00000000E+00  0.00000000E+00  0.00000000E+00
  0.00000000E+00  0.00000000E+00  0.00000000E+00  1.00000000E+00  1.00000000E+00
  0.00000000E+00  1.00000000E+00  0.00000000E+00  0.00000000E+00  0.00000000E+00
  0.00000000E+00  0.00000000E+00  0.00000000E+00  0.00000000E+00  0.00000000E+00
  0.00000000E+00  0.00000000E+00
MxBond                                     I                4
NBond                                      I   N=          18
           1           4           4           4           4           4
           1           1           1           1           1           1
           1           1           1           4           1           1
IBond                                      I   N=          72
           2           0           0           0           1           5
           6          13           4           7           8          16
           3           5           9          10           2           4
          11          12           2          14          15          16
           3           0           0           0           3           0
           0           0           4           0           0           0
           4           0           0           0           5           0
           0           0           5           0           0           0
           2           0           0           0           6           0
           0           0           6           0           0           0
           3           6          17          18          16           0
           0           0          16           0           0           0
RBond                                      R   N=          72
  1.00000000E+00  0.00000000E+00  0.00000000E+00  0.00000000E+00  1.00000000E+00
  1.00000000E+00  1.00000000E+00  1.00000000E+00  1.00000000E+00  1.00000000E+00
  1.00000000E+00  1.00000000E+00  1.00000000E+00  1.00000000E+00  1.00000000E+00
  1.00000000E+00  1.00000000E+00  1.00000000E+00  1.00000000E+00  1.00000000E+00
  1.00000000E+00  1.00000000E+00  1.00000000E+00  1.00000000E+00  1.00000000E+00
  0.00000000E+00  0.00000000E+00  0.00000000E+00  1.00000000E+00  0.00000000E+00
  0.00000000E+00  0.00000000E+00  1.00000000E+00  0.00000000E+00  0.00000000E+00
  0.00000000E+00  1.00000000E+00  0.00000000E+00  0.00000000E+00  0.00000000E+00
  1.00000000E+00  0.00000000E+00  0.00000000E+00  0.00000000E+00  1.00000000E+00
  0.00000000E+00  0.00000000E+00  0.00000000E+00  1.00000000E+00  0.00000000E+00
  0.00000000E+00  0.00000000E+00  1.00000000E+00  0.00000000E+00  0.00000000E+00
  0.00000000E+00  1.00000000E+00  0.00000000E+00  0.00000000E+00  0.00000000E+00
  1.00000000E+00  1.00000000E+00  1.00000000E+00  1.00000000E+00  1.00000000E+00
  0.00000000E+00  0.00000000E+00  0.00000000E+00  1.00000000E+00  0.00000000E+00
  0.00000000E+00  0.00000000E+00
Virial Ratio                               R      2.009728722060545E+00
SCF Energy                                 R     -2.358801201570612E+02
Total Energy                               R     -2.358801201570612E+02
RMS Density                                R      1.852331610637960E-09
Job Status                                 I                1
Nuclear derivative order                   I                0
External E-field                           R   N=          35
  0.00000000E+00  0.00000000E+00  0.00000000E+00  0.00000000E+00  0.00000000E+00
  0.00000000E+00  0.00000000E+00  0.00000000E+00  0.00000000E+00  0.00000000E+00
  0.00000000E+00  0.00000000E+00  0.00000000E+00  0.00000000E+00  0.00000000E+00
  0.00000000E+00  0.00000000E+00  0.00000000E+00  0.00000000E+00  0.00000000E+00
  0.00000000E+00  0.00000000E+00  0.00000000E+00  0.00000000E+00  0.00000000E+00
  0.00000000E+00  0.00000000E+00  0.00000000E+00  0.00000000E+00  0.00000000E+00
  0.00000000E+00  0.00000000E+00  0.00000000E+00  0.00000000E+00  0.00000000E+00
IOpCl                                      I                0
IROHF                                      I                0
Alpha Orbital Energies                     R   N=         114
 -1.01713512E+01 -1.01712540E+01 -1.01712521E+01 -1.01710399E+01 -1.01710374E+01
 -1.01709165E+01 -8.22779069E-01 -7.33465100E-01 -7.33429673E-01 -6.00078960E-01
 -6.00063643E-01 -5.44440319E-01 -4.73111022E-01 -4.35847603E-01 -4.29593343E-01
 -4.29586002E-01 -3.71557650E-01 -3.71499890E-01 -3.64320555E-01 -3.35125609E-01
 -3.35103277E-01 -3.10147879E-01 -2.91891009E-01 -2.91867989E-01  8.87763115E-02
  1.13570596E-01  1.37241122E-01  1.37246010E-01  1.66398319E-01  1.74923700E-01
  1.75965215E-01  1.75966859E-01  1.88975001E-01  1.88987597E-01  1.90299690E-01
  1.90336733E-01  2.43777588E-01  2.43840986E-01  2.57075884E-01  2.82839320E-01
  2.82868262E-01  2.96031931E-01  5.19323096E-01  5.25948567E-01  5.46636478E-01
  5.46657734E-01  5.47154547E-01  5.86703256E-01  5.86714166E-01  6.46777315E-01
  6.46869071E-01  6.78504631E-01  7.28727403E-01  7.28771837E-01  7.50751200E-01
  7.59242871E-01  8.34572369E-01  8.34605722E-01  8.66878679E-01  8.66882540E-01
  8.72863761E-01  8.94156553E-01  9.07601646E-01  9.07601835E-01  9.33291474E-01
  9.33302704E-01  9.71986135E-01  9.82600305E-01  9.82615154E-01  1.00830303E+00
  1.02146354E+00  1.17007225E+00  1.17014331E+00  1.37797188E+00  1.37801475E+00
  1.40468179E+00  1.40474362E+00  1.54938322E+00  1.57937552E+00  1.69650815E+00
  1.69664496E+00  1.73916744E+00  1.73952389E+00  1.90118178E+00  1.90132202E+00
  1.91813372E+00  1.91817723E+00  1.99457390E+00  1.99465770E+00  2.02064375E+00
  2.03945469E+00  2.09239605E+00  2.15315875E+00  2.15324081E+00  2.28149023E+00
  2.28155368E+00  2.36571882E+00  2.36587855E+00  2.39718253E+00  2.40085940E+00
  2.40091027E+00  2.40726183E+00  2.62087728E+00  2.62088641E+00  2.68295717E+00
  2.70852445E+00  2.70860477E+00  2.78475754E+00  4.13906718E+00  4.26115047E+00
  4.26123251E+00  4.55372821E+00  4.55503967E+00  4.55505183E+00
Alpha MO coefficients                      R   N=       12996
 -1.14348518E-04  1.27880569E-03  3.97979803E-01  1.97691950E-02  4.93272598E-07
  5.61153685E-05 -6.92580583E-05 -3.88596405E-03 -4.48187017E-06 -1.97765360E-04
  5.27579853E-04 -3.92288709E-03 -3.78777035E-03 -3.66977419E-03  1.63434515E-06
  8.93888273E-07  7.39811115E-05  4.17657950E-01  2.07660346E-02 -5.21909438E-07
 -5.55182237E-05  6.34991841E-05 -4.16434161E-03  5.18379059E-06  2.03550812E-04
 -5.15116989E-04 -4.11003307E-03 -3.96511076E-03 -3.84773981E-03  1.73451256E-06
  9.49611325E-07  7.76443024E-05  4.11766952E-01  2.04637689E-02  7.13145420E-05
  1.35619351E-05  4.68610174E-05 -4.05924321E-03 -5.16108247E-04  7.67402545E-05
 -2.32532166E-04 -3.90559184E-03 -3.84407316E-03 -4.01355641E-03 -1.18176622E-04
  6.67229410E-05  1.52833575E-05  3.96123281E-01  1.96717378E-02  7.16884934E-05
 -1.32944495E-05 -5.18596040E-05 -3.76654056E-03 -4.94154463E-04 -8.77788692E-05
  3.08408051E-04 -3.75813779E-03 -3.70882632E-03 -3.87393419E-03  1.16563391E-04
 -6.44252129E-05  1.49755739E-05  3.97182393E-01  1.97265202E-02 -7.15883785E-05
 -1.18153888E-05 -5.18162165E-05 -3.79891125E-03  4.88245590E-04 -9.82325427E-05
  3.02847203E-04 -3.77188818E-03 -3.71331184E-03 -3.88274407E-03 -1.15253056E-04
  6.45909988E-05  1.34698595E-05 -1.50808116E-04  1.01119297E-03 -1.17316674E-04
  1.31695362E-03 -1.16670988E-04  1.30979169E-03 -1.51448037E-04  9.88313092E-04
 -1.16536672E-04  1.27183943E-03 -1.51613243E-04  9.39124629E-04 -1.47638680E-04
  9.42592117E-04 -1.50849186E-04  9.42731821E-04 -1.16300625E-04  1.27372988E-03
  4.10431029E-01  2.03949798E-02 -7.14562401E-05  1.50232219E-05  4.69035208E-05
 -4.02251549E-03  5.21992297E-04  6.55211239E-05 -2.37653567E-04 -3.88920083E-03
 -3.83724996E-03 -4.00215327E-03  1.19530009E-04 -6.64881307E-05  1.68098276E-05
 -1.52167299E-04  9.83783578E-04 -1.16881647E-04  1.30729889E-03 -5.44553834E-05
  1.26849765E-03  5.78516437E-01  2.92735895E-02  1.72558334E-05 -2.82114607E-05
  1.38361422E-04 -9.07592059E-03 -3.04749239E-04  5.45526710E-05 -3.71842681E-04
 -5.43293931E-03 -5.20072789E-03 -5.20475769E-03 -8.69400548E-06  6.69512910E-06
  8.42174036E-05 -5.60736522E-01 -2.83865292E-02  1.68412905E-05 -3.03125610E-05
  1.40336402E-04  8.86661838E-03 -3.12778982E-04  5.69021764E-05 -3.84581441E-04
  5.26033282E-03  5.03330570E-03  5.04187584E-03  9.26391578E-06 -6.83923094E-06
 -8.09143159E-05 -3.43378683E-01 -1.73888889E-02  2.65298476E-05 -5.70779116E-05
  1.19582102E-04  5.44481883E-03  6.87756333E-04  6.11319336E-04 -1.55047248E-03
  3.18375714E-03  3.07913063E-03  3.12492633E-03  8.07433356E-05 -5.66212557E-05
 -5.76511880E-05  2.22635315E-01  1.12619462E-02  1.29848560E-05 -5.19619488E-05
  1.17264873E-04 -3.43943013E-03 -9.31048609E-04  6.85570221E-04 -1.75902190E-03
 -2.08855634E-03 -2.01587331E-03 -1.99992801E-03  7.47110832E-05 -4.53740417E-05
  4.83846365E-05  3.56501318E-01  1.80354565E-02  2.29797600E-05 -5.70307514E-05
  1.17183988E-04 -5.51854744E-03  7.20780998E-04  6.08077050E-04 -1.53353302E-03
 -3.31069407E-03 -3.20398701E-03 -3.25629534E-03 -8.53292760E-05  5.95967860E-05
  5.84504881E-05  6.32584390E-05 -1.86316954E-03  5.03723985E-05 -1.21436128E-03
  3.06552917E-05 -7.35313458E-04  3.74321700E-05 -1.14677833E-03 -2.27819582E-05
  4.89397294E-04 -2.82198879E-05  7.31800187E-04 -6.82486409E-05  1.90742540E-03
 -4.51715962E-05  1.17507820E-03 -3.57668493E-05  7.81141888E-04 -2.05751700E-01
 -1.04212631E-02  1.07826905E-05 -5.14060748E-05  1.19535399E-04  3.25694672E-03
 -9.10650165E-04  6.85890525E-04 -1.75919108E-03  1.92906574E-03  1.85847787E-03
  1.83678079E-03 -6.96717165E-05  4.28867331E-05 -4.75919344E-05  2.28320007E-05
 -6.90636643E-04  1.83559763E-05 -4.36673050E-04  7.39049846E-06 -1.76520271E-04
 -8.02093800E-02 -4.05858420E-03  1.27433292E-04  2.49939895E-06 -1.90688408E-05
  1.26303476E-03 -2.21176510E-03  1.71710872E-05  5.16922447E-05  7.51183103E-04
  7.22678491E-04  7.21465240E-04 -8.55022324E-05  4.13919286E-05 -1.20266803E-05
  7.79599000E-02  3.94645491E-03  1.24509400E-04  2.80126630E-06 -1.93427179E-05
 -1.23751976E-03 -2.27136030E-03  1.74182203E-05  5.36135026E-05 -7.29199277E-04
 -7.01526079E-04 -7.00825274E-04  8.91903359E-05 -4.27216866E-05  1.16221716E-05
 -4.61291491E-01 -2.33532555E-02  1.38453973E-04 -1.39856259E-05 -1.62634701E-05
  7.34259960E-03 -9.76135176E-04 -2.82788905E-04  9.83072902E-04  4.18768791E-03
  4.09663765E-03  4.32930171E-03  3.68589803E-05 -3.89067260E-05 -3.27751874E-05
 -5.24240101E-01 -2.65257664E-02  1.35719126E-04  2.39486511E-05 -1.58731970E-05