Cl_new_1 0.0                                                            
SP        RB3LYP                                                      6-31G(d)            
Number of atoms                            I                5
Info1-9                                    I   N=           9
          14          14           0           0           0         110
           1          18        -502
Full Title                                 C   N=           1
Cl_new_1 0.0
Route                                      C   N=           2
# nosymm b3lyp/6-31G*   
Charge                                     I                0
Multiplicity                               I                1
Number of electrons                        I               26
Number of alpha electrons                  I               13
Number of beta electrons                   I               13
Number of basis functions                  I               40
Number of independent functions            I               40
Number of point charges in /Mol/           I                0
Number of translation vectors              I                0
Atomic numbers                             I   N=           5
           6           1          17           1           1
Nuclear charges                            R   N=           5
  6.00000000E+00  1.00000000E+00  1.70000000E+01  1.00000000E+00  1.00000000E+00
Current cartesian coordinates              R   N=          15
  0.00000000E+00  0.00000000E+00  0.00000000E+00  0.00000000E+00  1.95475160E+00
 -6.52390150E-01  0.00000000E+00  0.00000000E+00  3.41110683E+00 -1.69287335E+00
 -9.77385249E-01 -6.52390150E-01  1.69287335E+00 -9.77385249E-01 -6.52390150E-01
Number of symbols in /Mol/                 I                0
Force Field                                I                0
Atom Types                                 C   N=           5
                                                            
Int Atom Types                             I   N=           5
           0           0           0           0           0
MM charges                                 R   N=           5
  0.00000000E+00  0.00000000E+00  0.00000000E+00  0.00000000E+00  0.00000000E+00
Integer atomic weights                     I   N=           5
          12           1          35           1           1
Real atomic weights                        R   N=           5
  1.20000000E+01  1.00782504E+00  3.49688527E+01  1.00782504E+00  1.00782504E+00
Atom fragment info                         I   N=           5
           0           0           0           0           0
Atom residue num                           I   N=           5
           0           0           0           0           0
Nuclear spins                              I   N=           5
           0           1           3           1           1
Nuclear ZEff                               R   N=           5
 -3.60000000E+00 -1.00000000E+00 -1.42400000E+01 -1.00000000E+00 -1.00000000E+00
Nuclear ZNuc                               R   N=           5
  6.00000000E+00  1.00000000E+00  1.70000000E+01  1.00000000E+00  1.00000000E+00
Nuclear QMom                               R   N=           5
  0.00000000E+00  0.00000000E+00 -8.16500000E+00  0.00000000E+00  0.00000000E+00
Nuclear GFac                               R   N=           5
  0.00000000E+00  2.79284600E+00  8.21874000E-01  2.79284600E+00  2.79284600E+00
MicOpt                                     I   N=           5
          -1          -1          -1          -1          -1
Number of residues                         I                0
Number of secondary structures             I                0
Number of contracted shells                I               15
Number of primitive shells                 I               40
Pure/Cartesian d shells                    I                1
Pure/Cartesian f shells                    I                0
Highest angular momentum                   I                2
Largest degree of contraction              I                6
Shell types                                I   N=          15
           0          -1          -1           2           0           0
           0          -1          -1          -1           2           0
           0           0           0
Number of primitives per shell             I   N=          15
           6           3           1           1           3           1
           6           6           3           1           1           3
           1           3           1
Shell to atom map                          I   N=          15
           1           1           1           1           2           2
           3           3           3           3           3           4
           4           5           5
Primitive exponents                        R   N=          40
  3.04752488E+03  4.57369518E+02  1.03948685E+02  2.92101553E+01  9.28666296E+00
  3.16392696E+00  7.86827235E+00  1.88128854E+00  5.44249258E-01  1.68714478E-01
  8.00000000E-01  1.87311370E+01  2.82539436E+00  6.40121692E-01  1.61277759E-01
  2.51801000E+04  3.78035000E+03  8.60474000E+02  2.42145000E+02  7.73349000E+01
  2.62470000E+01  4.91765000E+02  1.16984000E+02  3.74153000E+01  1.37834000E+01
  5.45215000E+00  2.22588000E+00  3.18649000E+00  1.14427000E+00  4.20377000E-01
  1.42657000E-01  7.50000000E-01  1.87311370E+01  2.82539436E+00  6.40121692E-01
  1.61277759E-01  1.87311370E+01  2.82539436E+00  6.40121692E-01  1.61277759E-01
Contraction coefficients                   R   N=          40
  1.83473713E-03  1.40373228E-02  6.88426223E-02  2.32184443E-01  4.67941348E-01
  3.62311985E-01 -1.19332420E-01 -1.60854152E-01  1.14345644E+00  1.00000000E+00
  1.00000000E+00  3.34946043E-02  2.34726953E-01  8.13757326E-01  1.00000000E+00
  1.83295985E-03  1.40341988E-02  6.90973943E-02  2.37451980E-01  4.83033960E-01
  3.39855972E-01 -2.29739142E-03 -3.07137189E-02 -1.12528069E-01  4.50163278E-02
  5.89353363E-01  4.65206287E-01 -2.51828028E-01  6.15892514E-02  1.06018433E+00
  1.00000000E+00  1.00000000E+00  3.34946043E-02  2.34726953E-01  8.13757326E-01
  1.00000000E+00  3.34946043E-02  2.34726953E-01  8.13757326E-01  1.00000000E+00
P(S=P) Contraction coefficients            R   N=          40
  0.00000000E+00  0.00000000E+00  0.00000000E+00  0.00000000E+00  0.00000000E+00
  0.00000000E+00  6.89990666E-02  3.16423961E-01  7.44308291E-01  1.00000000E+00
  0.00000000E+00  0.00000000E+00  0.00000000E+00  0.00000000E+00  0.00000000E+00
  0.00000000E+00  0.00000000E+00  0.00000000E+00  0.00000000E+00  0.00000000E+00
  0.00000000E+00  3.98940088E-03  3.03177067E-02  1.29880029E-01  3.27951072E-01
  4.53527100E-01  2.52154056E-01 -1.42993147E-02  3.23572333E-01  7.43507765E-01
  1.00000000E+00  0.00000000E+00  0.00000000E+00  0.00000000E+00  0.00000000E+00
  0.00000000E+00  0.00000000E+00  0.00000000E+00  0.00000000E+00  0.00000000E+00
Coordinates of each shell                  R   N=          45
  0.00000000E+00  0.00000000E+00  0.00000000E+00  0.00000000E+00  0.00000000E+00
  0.00000000E+00  0.00000000E+00  0.00000000E+00  0.00000000E+00  0.00000000E+00
  0.00000000E+00  0.00000000E+00  0.00000000E+00  1.95475160E+00 -6.52390150E-01
  0.00000000E+00  1.95475160E+00 -6.52390150E-01  0.00000000E+00  0.00000000E+00
  3.41110683E+00  0.00000000E+00  0.00000000E+00  3.41110683E+00  0.00000000E+00
  0.00000000E+00  3.41110683E+00  0.00000000E+00  0.00000000E+00  3.41110683E+00
  0.00000000E+00  0.00000000E+00  3.41110683E+00 -1.69287335E+00 -9.77385249E-01
 -6.52390150E-01 -1.69287335E+00 -9.77385249E-01 -6.52390150E-01  1.69287335E+00
 -9.77385249E-01 -6.52390150E-01  1.69287335E+00 -9.77385249E-01 -6.52390150E-01
Num ILSW                                   I              100
ILSW                                       I   N=         100
           0           1           0           0           2           0
           0           0           0           0         402          -1
           5           0           0           0           0           0
           0           0           1           0           0           0
           1           1           0           0           0           0
           0           0      100000           0          -1           0
           0           0           0           0           0           0
           0           0           0           1           0           0
           0 -2000000000           1           0           0           0
           0           0           4          52           0           0
           0           0           5           0           0           0
           0           0           0           0           0           1
           0           0           0           0           0           0
           0           0           0           0           0           0
           0           0           0           0           0           0
           0           0           0           0           0           0
           0           0           0           0
Num RLSW                                   I               52
RLSW                                       R   N=          52
  8.00000000E-01  7.20000000E-01  1.00000000E+00  8.10000000E-01  2.00000000E-01
  0.00000000E+00  0.00000000E+00  1.00000000E+00  0.00000000E+00  0.00000000E+00
  0.00000000E+00  0.00000000E+00  1.00000000E+00  0.00000000E+00  0.00000000E+00
  0.00000000E+00  0.00000000E+00  1.00000000E+00  0.00000000E+00  0.00000000E+00
  0.00000000E+00  0.00000000E+00  1.00000000E+00  0.00000000E+00  0.00000000E+00
  0.00000000E+00  0.00000000E+00  1.00000000E+00  0.00000000E+00  0.00000000E+00
  0.00000000E+00  0.00000000E+00  1.00000000E+00  0.00000000E+00  0.00000000E+00
  0.00000000E+00  0.00000000E+00  0.00000000E+00  1.00000000E+00  1.00000000E+00
  0.00000000E+00  1.00000000E+00  0.00000000E+00  0.00000000E+00  0.00000000E+00
  0.00000000E+00  0.00000000E+00  0.00000000E+00  0.00000000E+00  0.00000000E+00
  0.00000000E+00  0.00000000E+00
MxBond                                     I                4
NBond                                      I   N=           5
           4           1           1           1           1
IBond                                      I   N=          20
           2           3           4           5           1           0
           0           0           1           0           0           0
           1           0           0           0           1           0
           0           0
RBond                                      R   N=          20
  1.00000000E+00  1.00000000E+00  1.00000000E+00  1.00000000E+00  1.00000000E+00
  0.00000000E+00  0.00000000E+00  0.00000000E+00  1.00000000E+00  0.00000000E+00
  0.00000000E+00  0.00000000E+00  1.00000000E+00  0.00000000E+00  0.00000000E+00
  0.00000000E+00  1.00000000E+00  0.00000000E+00  0.00000000E+00  0.00000000E+00
Virial Ratio                               R      2.003673198740500E+00
SCF Energy                                 R     -5.001085321515490E+02
Total Energy                               R     -5.001085321515490E+02
RMS Density                                R      1.964171344981474E-09
Job Status                                 I                1
Nuclear derivative order                   I                0
External E-field                           R   N=          35
  0.00000000E+00  0.00000000E+00  0.00000000E+00  0.00000000E+00  0.00000000E+00
  0.00000000E+00  0.00000000E+00  0.00000000E+00  0.00000000E+00  0.00000000E+00
  0.00000000E+00  0.00000000E+00  0.00000000E+00  0.00000000E+00  0.00000000E+00
  0.00000000E+00  0.00000000E+00  0.00000000E+00  0.00000000E+00  0.00000000E+00
  0.00000000E+00  0.00000000E+00  0.00000000E+00  0.00000000E+00  0.00000000E+00
  0.00000000E+00  0.00000000E+00  0.00000000E+00  0.00000000E+00  0.00000000E+00
  0.00000000E+00  0.00000000E+00  0.00000000E+00  0.00000000E+00  0.00000000E+00
IOpCl                                      I                0
IROHF                                      I                0
Alpha Orbital Energies                     R   N=          40
 -1.01535172E+02 -1.02462586E+01 -9.45152287E+00 -7.21573906E+00 -7.20547929E+00
 -7.20547929E+00 -8.47955160E-01 -6.80410243E-01 -4.52349182E-01 -4.52347910E-01
 -4.11791992E-01 -2.96437392E-01 -2.96437265E-01  2.53369692E-02  1.06132670E-01
  1.42630801E-01  1.42632288E-01  4.02416668E-01  4.43835029E-01  4.60956513E-01
  4.60956624E-01  5.26572649E-01  5.26573658E-01  5.54924517E-01  8.37279051E-01
  8.37281515E-01  8.74982798E-01  8.96655429E-01  8.96656373E-01  9.33377596E-01
  9.33378646E-01  1.02963448E+00  1.24144673E+00  1.68158687E+00  1.68158744E+00
  2.12324470E+00  2.20400673E+00  2.20401179E+00  4.08467560E+00  4.29867999E+00
Alpha MO coefficients                      R   N=        1600
 -8.99673534E-06  4.27568587E-05  7.66078633E-17  1.76079025E-10  8.21869547E-05
  1.66437839E-04  1.43055511E-15 -4.22995989E-11 -6.55573208E-05 -1.35071423E-05
 -1.35068950E-05 -3.82025553E-05 -1.32873717E-15 -1.00438373E-15 -7.34887554E-11
 -2.15301099E-05 -8.59466360E-05  9.95998336E-01  1.51673061E-02  1.07054004E-17
  1.07959716E-11 -5.27761320E-05 -2.10277653E-02  5.18171203E-17 -4.57536138E-12
  3.86334035E-05  1.59475040E-03 -1.90519585E-16  3.40168281E-11 -3.38640487E-05
  7.56260879E-03  7.56260882E-03  7.55179147E-03  3.81588590E-17  2.42309298E-17
 -2.74176796E-11 -2.15300107E-05 -8.59460452E-05 -2.15300107E-05 -8.59460452E-05
  9.92921357E-01  4.95309358E-02 -1.68420090E-16  2.36569640E-09  6.11480795E-04
 -1.50697418E-02  1.36255600E-15 -1.92392884E-10 -8.93049070E-04 -9.08242120E-03
 -9.08241113E-03 -9.36698294E-03 -8.97111624E-16 -8.27610304E-17 -3.00838090E-09
 -9.67595984E-05  2.49263084E-03 -9.34652130E-06 -3.14303486E-05  6.52763120E-17
  3.85195158E-11 -3.02922657E-06  6.32670926E-05  5.72625370E-17 -1.97531739E-10
 -1.56220315E-04  2.80222986E-03 -1.70125514E-16 -3.17153836E-10 -1.74934134E-03
 -1.63084962E-04 -1.63085360E-04 -1.84915218E-04  2.47989734E-17  1.58405368E-16
  2.48067746E-10 -9.67514851E-05  2.49260880E-03 -9.67514851E-05  2.49260880E-03
 -5.79269541E-05  4.34727129E-04  7.47196971E-16 -2.35951491E-10 -6.58267884E-04
  4.07449923E-04 -1.09816687E-15  2.99662965E-10  1.51145932E-03  9.82461187E-06
  9.82481685E-06 -9.29136676E-04 -8.05170478E-16 -3.12380808E-16 -7.17507580E-11
 -1.18757300E-04  9.79750475E-04 -2.84664190E-01  1.02221491E+00 -7.17219811E-17
 -5.21809681E-09 -5.95968355E-03  7.40585206E-02  1.88324764E-17 -3.38654346E-10
 -1.04475894E-03 -1.35379769E-02 -1.94427907E-17 -3.49831645E-10  1.86398038E-03
 -1.66482053E-02 -1.66482061E-02 -1.60635772E-02  3.47168350E-17 -2.17267897E-17
  3.24330400E-10 -1.18757163E-04  9.79745139E-04 -1.18757163E-04  9.79745139E-04
 -1.04571753E-04 -1.84214081E-03 -2.41385329E-16  1.03896736E-09  9.97293136E-04
  2.50234614E-03 -1.35610815E-15 -1.29748006E-09  3.17869339E-04 -3.22313057E-04
 -3.22312573E-04  2.15026438E-03 -1.82507222E-16  2.20561671E-16 -2.59957293E-11
 -6.03355669E-05 -1.27059636E-03 -1.79041774E-03  6.55782535E-03 -7.40381106E-14
 -2.10304595E-07  9.90577119E-01 -1.31913788E-04 -2.44272911E-15 -5.49240476E-09
  3.00186100E-02 -5.12257681E-05  5.29377657E-16  1.74970599E-09 -8.15790178E-03
  2.33073347E-04  2.33073952E-04 -1.28472721E-03  6.95794061E-18  3.09553720E-16
 -7.94571095E-10 -6.03370273E-05 -1.27058841E-03 -6.03370273E-05 -1.27058841E-03
 -6.08032093E-17  1.93681963E-16 -8.12295395E-05  2.36834560E-12  5.24423452E-16
 -3.54341938E-16  2.19363420E-04 -6.39854420E-12 -1.14921948E-15 -2.84511737E-13
  2.84709474E-13  1.13875538E-17  1.12768029E-05 -2.67384674E-04  7.79536690E-12
  4.73202403E-12 -2.50232372E-11 -1.50456878E-16  5.06796151E-16  9.91133608E-01
 -2.88948815E-08  6.79747778E-14 -1.87036606E-15  2.81483268E-02 -8.20619180E-10
  1.96008321E-15  1.47565212E-15 -7.75711596E-03  2.26147192E-10 -1.80571284E-15
 -1.61646525E-13  1.62631421E-13  4.91273267E-16  6.44558715E-06 -3.73479431E-04
  1.08885462E-11  1.40583796E-04 -7.43437931E-04 -1.40583801E-04  7.43437956E-04
 -2.53471596E-10 -1.59550403E-09 -2.36856406E-12 -8.12285826E-05  2.57655040E-12
  3.29503652E-09  6.39591220E-12  2.19358969E-04  1.42785725E-09  9.76547496E-06
 -9.76581760E-06  5.86538660E-11  3.28657645E-13 -7.79519040E-12 -2.67384878E-04
 -1.62332958E-04  8.58451933E-04 -2.13382548E-09  7.98502546E-09  2.88948817E-08
  9.91133608E-01  2.09869226E-07 -6.36759334E-09  8.20618450E-10  2.81483254E-02
  6.90683618E-09 -2.25845768E-09 -2.26146015E-10 -7.75711502E-03 -6.17191592E-10
  5.58547664E-06 -5.57876862E-06  2.18729071E-09  1.87920495E-13 -1.08881282E-11
 -3.73479004E-04  8.11659314E-05 -4.29227417E-04  8.11659232E-05 -4.29227374E-04
 -1.10225846E-01  2.08812291E-01  1.74665254E-15  3.89109537E-07  8.00257920E-02
  2.01268351E-01 -8.84538374E-16 -2.15399383E-08  2.44408885E-02 -3.12557984E-03
 -3.12545505E-03  1.15851600E-02 -4.01594048E-16 -3.19877340E-16 -2.47190782E-08
  5.50495800E-02  2.13090630E-03  6.99828282E-02 -3.15025561E-01 -8.02556945E-16
  6.63861981E-09  4.74758770E-02  6.25790466E-01  2.16414090E-15 -2.58014811E-08
 -1.13017009E-01  2.19884996E-01  5.56469779E-16  2.81202891E-08 -4.56741568E-03
 -1.68332156E-02 -1.68331575E-02  2.66323913E-02  1.22757339E-17 -4.99367299E-16
 -2.04119375E-08  5.50489615E-02  2.13089327E-03  5.50489615E-02  2.13089327E-03
  1.65674403E-01 -3.29128492E-01 -1.65415252E-15 -1.42452853E-06  1.04619123E-01
 -3.37882070E-01  4.04228269E-15 -9.75450263E-08  3.04324628E-02 -6.23530252E-03
 -6.23559719E-03  1.25803175E-02 -4.78908086E-18 -8.80661589E-17  1.00044343E-07
 -1.34928494E-01 -4.09471228E-02  4.63064195E-02 -2.08824789E-01 -4.83332142E-16
  6.60481278E-08 -4.20499008E-02  4.34002094E-01  1.32432498E-15 -1.54505791E-07
  9.72784903E-02  2.18942845E-01 -1.24843161E-16 -9.56062104E-08  1.37022213E-02
 -8.63473181E-04 -8.63427697E-04 -1.84952225E-02 -1.09671402E-16  4.00218782E-16
  3.30185836E-08 -1.34926616E-01 -4.09466102E-02 -1.34926616E-01 -4.09466102E-02
  2.88335736E-07 -3.28537643E-07 -1.63283154E-10  4.44559582E-01 -2.46631738E-06
 -2.22922332E-06 -7.88356284E-11  2.14644653E-01 -1.05082315E-06 -1.80170681E-02
  1.80171093E-02 -1.76967605E-07  7.64114736E-12  2.56377002E-12 -6.98096135E-03
  2.53908578E-01  1.78550358E-01  1.86085471E-07 -8.67254619E-07  2.95887306E-11
 -8.05590112E-02 -1.56438551E-06  1.70076116E-06 -7.34800632E-11  2.00058934E-01
  3.91870943E-06  1.77255991E-06 -2.94058212E-11  8.00595310E-02  1.05510512E-06
 -1.14286933E-03  1.14316043E-03 -3.48072562E-07  4.84871277E-13  9.66603188E-12
 -2.63167733E-02 -1.26954333E-01 -8.92754597E-02 -1.26954334E-01 -8.92754598E-02
 -5.03440659E-16 -6.46462056E-15  4.44558460E-01  1.63283856E-10  1.82836948E-14
  3.21928498E-14  2.14645441E-01  7.88327080E-11  9.52296350E-15 -6.61948354E-12
  6.61569517E-12 -1.69967779E-16 -2.08042245E-02 -6.98080872E-03 -2.56405675E-12
  9.32530924E-11  6.55723923E-11 -8.85051936E-16  4.36115702E-15 -8.05598507E-02
 -2.95891409E-11  1.14414067E-14 -7.71548314E-15  2.00061070E-01  7.34812693E-11
 -2.83885213E-14 -1.46036981E-14  8.00606356E-02  2.94062680E-11 -5.99190672E-15
 -4.19955699E-13  4.19125746E-13  2.05919900E-15 -1.31982564E-03 -2.63168589E-02
 -9.66566389E-12 -2.19890706E-01 -1.54629766E-01  2.19890706E-01  1.54629766E-01
  2.56791053E-03 -1.39857477E-03  2.27027383E-14 -2.55824901E-06 -3.65096422E-01
 -6.93143850E-02  1.29905666E-14 -1.57539907E-06 -1.99610008E-01  1.03773518E-02
  1.03771943E-02 -2.49003323E-02 -8.25262306E-16 -8.10212239E-17 -5.38426891E-08
  7.44542792E-02  6.72889408E-02  1.65663069E-02 -7.90951976E-02 -4.60559806E-15
  7.67056876E-07 -2.25218360E-01  1.56494160E-01  1.17216328E-14 -1.91284569E-06
  5.69100745E-01  1.96510169E-01  3.97949492E-15 -8.81073988E-07  1.83472343E-01
  1.24097348E-02  1.24097755E-02 -5.09251891E-02 -1.81137996E-16 -4.64505632E-16
  1.67971963E-07  7.44561287E-02  6.72905080E-02  7.44561287E-02  6.72905080E-02
  2.27648342E-08 -1.73786557E-07  8.14358240E-11 -1.47674645E-01 -1.79113015E-07
  4.88030333E-07  2.21289664E-11 -4.01287496E-02 -2.96985850E-07  7.73453210E-03
 -7.73444507E-03 -2.02063181E-08 -4.92501487E-12 -1.23739185E-11  2.24391990E-02
 -1.20739530E-01 -1.45724947E-01 -1.03161021E-08  4.93197753E-08  1.51398525E-10
 -2.74542940E-01 -2.15831810E-07 -3.64249348E-07 -3.88259878E-10  7.04062707E-01
  5.83929632E-07  4.23010191E-08 -2.21373330E-10  4.01432511E-01  1.25040035E-07
  9.91030140E-04 -9.90593223E-04  7.03316014E-08 -6.30340320E-13  3.28843153E-12
 -5.96394088E-03  6.03701330E-02  7.28631440E-02  6.03701331E-02  7.28631442E-02
  8.31641748E-16  3.75181210E-15 -1.47675579E-01 -8.14367772E-11  4.11647516E-16
 -2.46661063E-14 -4.01299884E-02 -2.21277534E-11 -5.27422480E-16  4.26637541E-12
 -4.26428892E-12  1.12447085E-15  8.93108490E-03  2.24391843E-02  1.23742753E-11
 -6.65823063E-11 -8.03563366E-11 -2.61951877E-16  9.26468275E-16 -2.74542705E-01
 -1.51398667E-10  5.77251352E-16 -3.48393726E-15  7.04062147E-01  3.88260502E-10
 -1.41459821E-15  4.58758606E-15  4.01432280E-01  2.21372281E-10 -5.52280749E-15
  5.47231963E-13 -5.46823208E-13 -6.24764270E-17  1.14419093E-03 -5.96387459E-03
 -3.28888543E-12  1.04564351E-01  1.26202663E-01 -1.04564350E-01 -1.26202662E-01
 -1.19314732E-01  1.92517097E-01 -1.16004878E-14 -6.29308476E-07  3.96624128E-01
  1.29349961E+00 -5.95604831E-14 -1.34202453E-06  7.35677226E-01 -1.87468278E-03
 -1.87456926E-03 -1.99224289E-02  4.79443901E-16  2.00718624E-16  7.49775251E-08
 -1.04042285E-02 -2.39994394E-01 -2.22833289E-02  1.08766239E-01 -6.92944189E-16
 -9.24079606E-08 -1.70226776E-01 -2.20269339E-01  1.04897173E-15  2.90458762E-07
  4.56562416E-01 -6.61311048E-01  1.13518850E-14  9.99649441E-08  8.78228621E-01
 -4.37232955E-02 -4.37233263E-02  1.15577231E-01 -6.83145733E-16  2.55643024E-15
  6.20161650E-08 -1.04044340E-02 -2.39995373E-01 -1.04044340E-02 -2.39995373E-01
 -1.15836476E-01  1.29739984E-01 -8.88164375E-14 -9.58944237E-06 -2.94258518E-01
  2.07281106E+00 -3.26176659E-13 -2.61174832E-05 -7.12335638E-01 -1.88330592E-02
 -1.88323965E-02  1.16345581E-02 -2.67378628E-15 -1.83482604E-15 -3.66206138E-07
 -4.45803231E-02 -1.10128683E+00  1.61705838E-02 -4.60218669E-02 -3.81484095E-15
 -4.56627852E-07  4.59637077E-02  2.47247689E-01  8.93885934E-15  1.10097226E-06
 -1.35346388E-01 -5.74005184E-02  4.70613709E-14  4.27948736E-06 -1.14923056E-01
  1.22909028E-02  1.22916270E-02  1.12423867E-02 -4.75367306E-15  1.29194364E-14
  1.31625454E-06 -4.45850536E-02 -1.10132854E+00 -4.45850536E-02 -1.10132854E+00
 -2.70316428E-14  8.13455325E-14  4.04045778E-01 -4.66112939E-11 -5.19840661E-14
  3.55204772E-13  1.36626825E+00 -1.57617745E-10 -1.51296680E-13 -1.84965585E-12
  1.86465170E-12  1.60102914E-14  1.85824875E-02  1.30585457E-02 -1.50650587E-12
  1.42734690E-11  2.02124574E-10  2.29467891E-15 -6.84642455E-15  1.02066897E-02
 -1.17644414E-12  1.91943287E-15  3.13647342E-14 -1.61595793E-02  1.86033527E-12
 -5.90566252E-15  1.69506231E-14 -2.17207733E-01  2.50620701E-11 -4.04807915E-14
 -2.38044165E-12  2.37976705E-12  1.19565528E-14  2.38311236E-02 -6.36028866E-02
  7.33766499E-12  1.07207375E-01  1.51911915E+00 -1.07207375E-01 -1.51911915E+00
  2.45053098E-06 -2.41963592E-06 -4.66178579E-11 -4.04044761E-01  5.60946317E-06
 -5.87825928E-05 -1.57600900E-10 -1.36627920E+00  1.75216853E-05 -1.60921991E-02
  1.60929294E-02 -1.35437471E-07 -2.14333011E-12 -1.50654480E-12 -1.30586286E-02
  1.23790861E-01  1.75417223E+00 -3.61110131E-07  9.44964502E-07 -1.17731653E-12
 -1.02062343E-02 -8.24620851E-07 -5.82226247E-06  1.86314851E-12  1.61580719E-02
  2.48366365E-06  2.32339981E-06  2.50559152E-11  2.17209300E-01  1.76869731E-06
 -2.06386284E-02  2.06381977E-02 -3.80770377E-07 -2.74974247E-12  7.33702855E-12
  6.36030833E-02 -6.18951428E-02 -8.77043969E-01 -6.18951428E-02 -8.77043969E-01
 -6.51766903E-03 -2.01082954E-02 -5.73226835E-15 -7.04146124E-07 -2.65591524E-01
  1.59254386E-01  1.07451171E-14  2.57737523E-06 -1.01541818E-01  3.19810417E-04
  3.19672982E-04 -2.92171010E-02  4.58563981E-16  5.46927862E-16 -6.96859449E-08
 -4.00407283E-02 -1.64771306E-01 -6.30950002E-02  7.31042195E-02 -1.80432493E-16
  4.51053708E-07  1.38982966E-01 -1.28155499E+00  1.12665989E-15 -1.75897482E-06
 -4.89452756E-01  1.73119079E+00 -3.73378783E-15  1.67982659E-06  2.80099497E-01
 -4.00386327E-02 -4.00398670E-02 -2.21811120E-01  7.34486182E-16 -1.95884955E-15
  3.80110055E-07 -4.00410029E-02 -1.64765941E-01 -4.00410029E-02 -1.64765941E-01
  2.02943074E-02 -2.15203271E-01  2.54004874E-14  4.54419103E-07  2.74022703E-01
  6.55399361E-01 -2.36110093E-14  6.56528762E-07 -6.69782582E-02 -5.71088952E-02
 -5.71088982E-02  1.40874939E-01 -1.75933159E-15 -1.19229904E-15 -2.25705415E-08
 -6.90848263E-02  1.68532054E-01  1.66054678E-02  1.89419956E-02 -1.20903807E-14
 -1.10146478E-06  2.28983233E-01  4.24773484E-01  4.69082363E-14  4.27188425E-06
 -9.44877075E-01 -8.81731607E-01 -4.43273504E-14 -4.85639113E-06  1.45054292E+00
 -6.72691898E-02 -6.72692261E-02  3.10800615E-01 -1.88702940E-16 -5.83534037E-17
 -3.18724223E-07 -6.90841783E-02  1.68530156E-01 -6.90841783E-02  1.68530156E-01
 -1.28352950E-07 -1.51468513E-06  1.71565620E-10 -1.64685618E-01  3.42562275E-06
  7.65016552E-06 -2.96028151E-10  2.84160338E-01 -6.94769163E-06  3.16185158E-02
 -3.16188401E-02  5.38900866E-07 -3.80369187E-11 -2.04274832E-11  1.96085404E-02
 -1.90250649E-01 -1.10105717E-01  5.64580341E-08  1.07647265E-07 -3.05232894E-10
  2.92985132E-01  1.41016083E-07  1.04538475E-06  1.17106099E-09 -1.12407162E+00
 -9.91695642E-07 -8.37926736E-07 -1.18931988E-09  1.14159497E+00  9.11289485E-07
  6.65654721E-03 -6.65668715E-03  1.88655469E-06 -8.00819077E-12  1.23031785E-11
 -1.18114354E-02  9.51239942E-02  5.50498642E-02  9.51239945E-02  5.50498644E-02
  6.61758497E-16 -6.35597669E-15 -1.64684714E-01 -1.71565514E-10  2.32418599E-14
  2.57756715E-14  2.84151417E-01  2.96039550E-10 -3.45457827E-14  3.29381839E-11
 -3.29433087E-11  8.00916551E-15  3.65100998E-02  1.96081438E-02  2.04283883E-11
 -1.98209693E-10 -1.14709019E-10  5.45987566E-16  7.45453688E-16  2.92985295E-01
  3.05232779E-10  9.33244936E-15  1.33343653E-14 -1.12407242E+00 -1.17106112E-09
 -3.93895701E-14 -1.59192296E-14  1.14159773E+00  1.18931711E-09  4.71491276E-14
  6.92950009E-12 -6.93859559E-12  1.74871018E-14  7.68656092E-03 -1.18097482E-02
 -1.23059637E-11  1.64760206E-01  9.53474109E-02 -1.64760206E-01 -9.53474108E-02
 -9.53376036E-07  5.72965369E-07  4.66743214E-10 -7.26321090E-01  1.58483116E-05
  5.96547588E-06 -9.61651850E-10  1.49649748E+00 -4.41814486E-05  7.09096610E-02
 -7.09098597E-02  7.91915941E-07 -5.26163146E-11 -4.07926826E-11  6.34812392E-02
 -3.96653539E-01 -2.30551889E-01 -5.69968545E-07  2.67325409E-07  4.64607261E-11
 -7.23008550E-02 -2.92529231E-06 -1.29031628E-05 -2.00043636E-10  3.11302010E-01
  1.02145315E-05  3.85238935E-05  4.51231506E-10 -7.02193761E-01 -2.87900445E-05
  1.75059248E-02 -1.75088986E-02  6.74885024E-07 -1.29925714E-11  1.82729528E-10
 -2.84361587E-01  1.98317266E-01  1.15261382E-01  1.98317267E-01  1.15261382E-01
 -8.83968235E-16  1.35651588E-14 -7.26324834E-01 -4.66727508E-10  5.26885462E-14
 -3.18499214E-14  1.49649188E+00  9.61654017E-10 -1.15927902E-13  4.55678332E-11
 -4.55687200E-11  5.88694924E-15  8.18802678E-02  6.34811625E-02  4.07942618E-11
 -2.54906559E-10 -1.48158816E-10 -1.03307612E-15  8.80843895E-16 -7.22999596E-02
 -4.64612544E-11 -5.65204124E-15 -2.50594224E-14  3.11298443E-01  2.00045965E-10
  1.67098746E-14  8.80868334E-14 -7.02188888E-01 -4.51235636E-10 -6.30601845E-14
  1.12470609E-11 -1.12551918E-11  1.07791352E-14  2.02157778E-02 -2.84361568E-01
 -1.82734541E-10  3.43506504E-01  1.99649631E-01 -3.43506503E-01 -1.99649631E-01
  2.71065748E-02 -1.36216823E-01 -2.78623647E-14 -1.72875453E-05 -8.05563864E-01
  2.59745825E-01  6.97021463E-14  3.06594682E-05  2.00095511E+00  2.21108457E-02
  2.21075559E-02 -5.27768110E-02  4.57961992E-15  4.50210752E-15  1.68986873E-06
  2.48058341E-01  3.26913674E-01  2.52311844E-02 -1.06820578E-02 -3.30529781E-17
 -7.04176456E-07  1.10962874E-01  5.86077555E-01  1.96634211E-15  3.43294697E-06
 -3.74113318E-01 -1.80284474E+00 -1.91023559E-14 -1.16750874E-05  1.27497164E+00
  6.76134340E-02  6.76136811E-02 -5.79895232E-02  1.54198814E-15 -1.69358473E-14
 -7.13584575E-06  2.48073078E-01  3.26912716E-01  2.48073078E-01  3.26912716E-01
  1.29767023E-16  1.46453264E-13 -7.75252228E-01 -5.80886257E-10 -6.61320901E-14
 -3.70660421E-13  1.29566073E+00  9.70818821E-10  7.85019368E-14 -6.19764424E-11
  6.19934043E-11  3.87875815E-14 -9.55212860E-02 -1.46230537E-01 -1.09565889E-10
  4.91497924E-10 -1.09954863E-09  2.28189540E-16  9.16714031E-16  7.67173014E-03
  5.74792982E-12 -2.28313325E-16  3.30451538E-15 -4.44870192E-02 -3.33314874E-11
 -2.37906349E-15 -7.24450775E-15 -4.42763573E-02 -3.31792837E-11 -8.81339911E-15
  2.86181358E-10 -2.86213885E-10  4.63901740E-14  4.41038701E-01  2.87530972E-01
  2.15435096E-10 -5.68144087E-01  1.27101699E+00  5.68144086E-01 -1.27101699E+00
  1.92469590E-06 -2.91736189E-05 -5.80876808E-10  7.75248474E-01  2.74519191E-05
  6.22981381E-05  9.70818710E-10 -1.29565937E+00 -3.63568960E-05  8.27225695E-02
 -8.27185491E-02 -7.94452529E-06 -7.15729385E-11 -1.09569963E-10  1.46231734E-01
 -6.55999469E-01  1.46759410E+00 -1.59607237E-07 -4.92414830E-07  5.74762741E-12
 -7.67120727E-03  1.37274199E-06 -5.13865727E-06 -3.33309561E-11  4.44847297E-02
 -5.14194002E-06  2.05576687E-05 -3.31785251E-11  4.42799201E-02 -4.67324477E-06
 -3.81957295E-01  3.81971344E-01 -1.58963025E-05  3.30461804E-10  2.15455954E-10
 -2.87539260E-01  3.28038143E-01 -7.33853643E-01  3.28038144E-01 -7.33853645E-01
  4.33482082E-02 -5.30486537E-01 -2.27489378E-14 -2.17515210E-05  6.53293612E-01
  1.21822505E+00  4.69317731E-14  3.59920007E-05 -7.83971403E-01  4.96783109E-02
  4.96791161E-02 -1.85837419E-01  1.55015849E-16 -4.83781032E-15 -5.49757465E-06
  5.67027786E-01 -7.62640899E-01  7.42001944E-04 -1.64926786E-02  2.42427708E-17