CN                                                                      
SP        RB3LYP                                                      6-31G(d)            
Number of atoms                            I                3
Info1-9                                    I   N=           9
          12          12           0           0           0         110
           1          18        -502
Full Title                                 C   N=           1
CN          
Route                                      C   N=           2
# nosymm b3lyp/6-31G*   
Charge                                     I                0
Multiplicity                               I                1
Number of electrons                        I               14
Number of alpha electrons                  I                7
Number of beta electrons                   I                7
Number of basis functions                  I               32
Number of independent functions            I               32
Number of point charges in /Mol/           I                0
Number of translation vectors              I                0
Atomic numbers                             I   N=           3
           1           6           7
Nuclear charges                            R   N=           3
  1.00000000E+00  6.00000000E+00  7.00000000E+00
Current cartesian coordinates              R   N=           9
  0.00000000E+00  0.00000000E+00  0.00000000E+00  0.00000000E+00  0.00000000E+00
  2.01586534E+00  0.00000000E+00  0.00000000E+00  4.18179384E+00
Number of symbols in /Mol/                 I                0
Force Field                                I                0
Atom Types                                 C   N=           3
                                    
Int Atom Types                             I   N=           3
           0           0           0
MM charges                                 R   N=           3
  0.00000000E+00  0.00000000E+00  0.00000000E+00
Integer atomic weights                     I   N=           3
           1          12          14
Real atomic weights                        R   N=           3
  1.00782504E+00  1.20000000E+01  1.40030740E+01
Atom fragment info                         I   N=           3
           0           0           0
Atom residue num                           I   N=           3
           0           0           0
Nuclear spins                              I   N=           3
           1           0           2
Nuclear ZEff                               R   N=           3
 -1.00000000E+00 -3.60000000E+00 -4.55000000E+00
Nuclear ZNuc                               R   N=           3
  1.00000000E+00  6.00000000E+00  7.00000000E+00
Nuclear QMom                               R   N=           3
  0.00000000E+00  0.00000000E+00  2.04400000E+00
Nuclear GFac                               R   N=           3
  2.79284600E+00  0.00000000E+00  4.03761000E-01
MicOpt                                     I   N=           3
          -1          -1          -1
Number of residues                         I                0
Number of secondary structures             I                0
Number of contracted shells                I               10
Number of primitive shells                 I               26
Pure/Cartesian d shells                    I                1
Pure/Cartesian f shells                    I                0
Highest angular momentum                   I                2
Largest degree of contraction              I                6
Shell types                                I   N=          10
           0           0           0          -1          -1           2
           0          -1          -1           2
Number of primitives per shell             I   N=          10
           3           1           6           3           1           1
           6           3           1           1
Shell to atom map                          I   N=          10
           1           1           2           2           2           2
           3           3           3           3
Primitive exponents                        R   N=          26
  1.87311370E+01  2.82539436E+00  6.40121692E-01  1.61277759E-01  3.04752488E+03
  4.57369518E+02  1.03948685E+02  2.92101553E+01  9.28666296E+00  3.16392696E+00
  7.86827235E+00  1.88128854E+00  5.44249258E-01  1.68714478E-01  8.00000000E-01
  4.17351146E+03  6.27457911E+02  1.42902093E+02  4.02343293E+01  1.28202129E+01
  4.39043701E+00  1.16263619E+01  2.71627981E+00  7.72218397E-01  2.12031498E-01
  8.00000000E-01
Contraction coefficients                   R   N=          26
  3.34946043E-02  2.34726953E-01  8.13757326E-01  1.00000000E+00  1.83473713E-03
  1.40373228E-02  6.88426223E-02  2.32184443E-01  4.67941348E-01  3.62311985E-01
 -1.19332420E-01 -1.60854152E-01  1.14345644E+00  1.00000000E+00  1.00000000E+00
  1.83477216E-03  1.39946270E-02  6.85865518E-02  2.32240873E-01  4.69069948E-01
  3.60455199E-01 -1.14961182E-01 -1.69117479E-01  1.14585195E+00  1.00000000E+00
  1.00000000E+00
P(S=P) Contraction coefficients            R   N=          26
  0.00000000E+00  0.00000000E+00  0.00000000E+00  0.00000000E+00  0.00000000E+00
  0.00000000E+00  0.00000000E+00  0.00000000E+00  0.00000000E+00  0.00000000E+00
  6.89990666E-02  3.16423961E-01  7.44308291E-01  1.00000000E+00  0.00000000E+00
  0.00000000E+00  0.00000000E+00  0.00000000E+00  0.00000000E+00  0.00000000E+00
  0.00000000E+00  6.75797439E-02  3.23907296E-01  7.40895140E-01  1.00000000E+00
  0.00000000E+00
Coordinates of each shell                  R   N=          30
  0.00000000E+00  0.00000000E+00  0.00000000E+00  0.00000000E+00  0.00000000E+00
  0.00000000E+00  0.00000000E+00  0.00000000E+00  2.01586534E+00  0.00000000E+00
  0.00000000E+00  2.01586534E+00  0.00000000E+00  0.00000000E+00  2.01586534E+00
  0.00000000E+00  0.00000000E+00  2.01586534E+00  0.00000000E+00  0.00000000E+00
  4.18179384E+00  0.00000000E+00  0.00000000E+00  4.18179384E+00  0.00000000E+00
  0.00000000E+00  4.18179384E+00  0.00000000E+00  0.00000000E+00  4.18179384E+00
Num ILSW                                   I              100
ILSW                                       I   N=         100
           0           1           0           0           2           0
           0           0           0           0         402          -1
           5           0           0           0           0           0
           0           0           1           0           0           0
           1           1           0           0           0           0
           0           0      100000           0          -1           0
           0           0           0           0           0           0
           0           0           0           1           0           0
           0 -2000000000           1           0           0           0
           0           0           4          52           0           0
           0           0           5           0           0           0
           0           0           0           0           0           1
           0           0           0           0           0           0
           0           0           0           0           0           0
           0           0           0           0           0           0
           0           0           0           0           0           0
           0           0           0           0
Num RLSW                                   I               52
RLSW                                       R   N=          52
  8.00000000E-01  7.20000000E-01  1.00000000E+00  8.10000000E-01  2.00000000E-01
  0.00000000E+00  0.00000000E+00  1.00000000E+00  0.00000000E+00  0.00000000E+00
  0.00000000E+00  0.00000000E+00  1.00000000E+00  0.00000000E+00  0.00000000E+00
  0.00000000E+00  0.00000000E+00  1.00000000E+00  0.00000000E+00  0.00000000E+00
  0.00000000E+00  0.00000000E+00  1.00000000E+00  0.00000000E+00  0.00000000E+00
  0.00000000E+00  0.00000000E+00  1.00000000E+00  0.00000000E+00  0.00000000E+00
  0.00000000E+00  0.00000000E+00  1.00000000E+00  0.00000000E+00  0.00000000E+00
  0.00000000E+00  0.00000000E+00  0.00000000E+00  1.00000000E+00  1.00000000E+00
  0.00000000E+00  1.00000000E+00  0.00000000E+00  0.00000000E+00  0.00000000E+00
  0.00000000E+00  0.00000000E+00  0.00000000E+00  0.00000000E+00  0.00000000E+00
  0.00000000E+00  0.00000000E+00
MxBond                                     I                2
NBond                                      I   N=           3
           1           2           1
IBond                                      I   N=           6
           2           0           1           3           2           0
RBond                                      R   N=           6
  1.00000000E+00  0.00000000E+00  1.00000000E+00  3.00000000E+00  3.00000000E+00
  0.00000000E+00
Virial Ratio                               R      2.009004713931035E+00
SCF Energy                                 R     -9.342232642369939E+01
Total Energy                               R     -9.342232642369939E+01
RMS Density                                R      6.218627494437592E-09
Job Status                                 I                1
Nuclear derivative order                   I                0
External E-field                           R   N=          35
  0.00000000E+00  0.00000000E+00  0.00000000E+00  0.00000000E+00  0.00000000E+00
  0.00000000E+00  0.00000000E+00  0.00000000E+00  0.00000000E+00  0.00000000E+00
  0.00000000E+00  0.00000000E+00  0.00000000E+00  0.00000000E+00  0.00000000E+00
  0.00000000E+00  0.00000000E+00  0.00000000E+00  0.00000000E+00  0.00000000E+00
  0.00000000E+00  0.00000000E+00  0.00000000E+00  0.00000000E+00  0.00000000E+00
  0.00000000E+00  0.00000000E+00  0.00000000E+00  0.00000000E+00  0.00000000E+00
  0.00000000E+00  0.00000000E+00  0.00000000E+00  0.00000000E+00  0.00000000E+00
IOpCl                                      I                0
IROHF                                      I                0
Alpha Orbital Energies                     R   N=          32
 -1.43576071E+01 -1.02438227E+01 -9.23702869E-01 -6.08782013E-01 -3.79466788E-01
 -3.61540280E-01 -3.61540280E-01  2.44852589E-02  2.44852589E-02  8.33244574E-02
  2.76676779E-01  5.18768892E-01  5.18768892E-01  6.35560632E-01  6.93805749E-01
  7.72701582E-01  7.72701582E-01  8.15152792E-01  1.10993624E+00  1.44508511E+00
  1.50307216E+00  1.50307217E+00  1.53698737E+00  1.53698737E+00  1.95569494E+00
  1.95569495E+00  2.56318069E+00  2.56318069E+00  2.61873357E+00  2.99819481E+00
  3.86183261E+00  4.09939720E+00
Alpha MO coefficients                      R   N=        1024
  2.81602631E-04 -7.03112570E-04  7.26892994E-05  6.69351862E-05  1.23842250E-17
  5.56663011E-16 -8.51664485E-04 -1.75592773E-03  8.21881895E-17 -1.60638814E-16
 -1.64292262E-03  9.58638207E-05  9.58638207E-05 -1.45358720E-03 -4.37867129E-17
  8.46935132E-17  6.28034591E-16  9.92790942E-01  3.46537028E-02 -7.11640744E-18
 -3.06644625E-17 -2.28878166E-03  5.69796509E-03 -1.53175486E-17 -2.77310308E-16
 -8.47858342E-04 -8.32913190E-03 -8.32913190E-03 -6.99086923E-03  3.16278795E-17
 -1.71038142E-16  6.72644555E-16 -7.21294519E-04  3.96578978E-03  9.92431758E-01
  4.94963880E-02 -2.73084414E-17 -2.27537397E-16  1.05696847E-04 -4.39326082E-03
  3.54363964E-16  5.19968709E-17  4.74119427E-03 -1.06260503E-02 -1.06260503E-02
 -8.67701938E-03 -2.87421002E-17  1.33098078E-16  3.74165851E-16 -6.62403388E-04
 -1.50169514E-06 -1.35085751E-17 -8.42256436E-17  1.64868021E-04 -4.54835076E-03
 -1.95724723E-16 -1.68459543E-16  2.19753249E-03  7.36826152E-06  7.36826152E-06
  9.38850175E-05  3.01397089E-17  2.65326216E-16  3.69557587E-16  3.11915639E-02
 -5.05848189E-02 -1.54052631E-01  2.88754793E-01  1.23761205E-16  1.35674632E-16
  2.11739067E-01  9.07186805E-02  1.02394251E-16 -1.07003470E-17 -9.21709884E-02
 -1.93383165E-02 -1.93383165E-02  1.76124884E-02  1.24656666E-16  2.66345109E-17
 -3.61933218E-16 -1.84662371E-01  3.68329634E-01  1.93132905E-16  1.29983529E-16
 -2.04247685E-01  3.97726864E-01 -4.80298925E-17  1.26800061E-16 -7.41126657E-02
 -1.75014011E-02 -1.75014011E-02  9.79546799E-03  1.11779404E-16 -6.01720734E-17
 -1.67323464E-16 -3.04214383E-01 -1.61707181E-01  1.26583213E-01 -2.62520924E-01
  6.28129631E-17  7.57320138E-17  3.52242615E-01 -2.63144798E-01  1.57023736E-16
  1.05908955E-16  9.42238047E-02  9.14873708E-03  9.14873708E-03 -2.32972212E-02
  4.56400506E-17 -1.38029101E-16  1.51062968E-17 -6.89098212E-02  1.52288066E-01
 -2.01801709E-17  1.59531135E-16 -1.81277528E-02  1.52208320E-01 -1.49139350E-16
 -6.79078082E-17  7.48110874E-03 -5.40907844E-03 -5.40907844E-03  1.36880585E-03
  9.91358691E-17  1.09552408E-16  1.31503713E-16  8.16919317E-02  1.38821635E-01
  6.99160693E-02 -1.51567395E-01 -7.11411644E-16 -6.13995050E-16 -2.38219330E-01
 -9.92553620E-02 -3.02352745E-16 -3.08806449E-16  2.65189960E-02  3.49152445E-03
  3.49152445E-03  2.22098975E-02 -1.24550170E-16  1.24471591E-16 -1.30503133E-16
 -1.16746586E-01  2.47183384E-01 -7.91103198E-16 -5.37487506E-16  5.12179124E-01
  4.54766516E-01 -4.98030762E-16 -1.26228383E-16  2.68750108E-01  4.05936463E-03
  4.05936463E-03 -4.76304369E-02  1.45270392E-16  1.95409379E-16  8.98600635E-17
  5.29447268E-17 -4.72185662E-15 -7.19215862E-17 -4.98734866E-17  4.15025094E-01
  3.28250359E-02 -1.12043423E-16  1.04329748E-15  2.35402640E-01  1.86183925E-02
 -5.44944293E-15 -1.86508229E-16 -7.10324372E-16 -4.37101778E-16 -1.39912711E-16
  2.18880124E-02  1.73115989E-03 -2.40944999E-16  1.73562250E-16  4.57364245E-01
  3.61737110E-02  8.99708031E-16  5.10753484E-15  2.49137093E-01  1.97046736E-02
 -6.59788810E-16  1.00069879E-16 -2.66122321E-16 -2.90669442E-16 -4.04271138E-17
 -3.42726448E-02 -2.71068139E-03 -2.97059861E-17 -2.47242438E-15  9.26057066E-17
 -2.73921559E-16 -3.28250359E-02  4.15025094E-01 -6.64435973E-17 -3.62400321E-15
 -1.86183925E-02  2.35402640E-01 -5.36874389E-15  1.17162405E-16  8.30677176E-17
  7.37986586E-17 -1.06348175E-17 -1.73115989E-03  2.18880124E-02 -2.59442990E-16
 -2.86672976E-16 -3.61737110E-02  4.57364245E-01  6.71764312E-16  7.33274769E-15
 -1.97046736E-02  2.49137093E-01 -2.16769866E-15 -2.09804842E-16 -2.79587768E-16
 -3.36850777E-16  1.52962559E-17  2.71068139E-03 -3.42726448E-02  1.77873494E-16
  1.03828622E-15  5.11710324E-17 -8.51761545E-17  4.08684805E-01  1.54140811E-01
  8.10324888E-17 -5.87563474E-16  6.30203522E-01  2.37689489E-01  6.11330452E-16
 -1.15723774E-16  8.48873367E-17  4.04449431E-17 -1.61310748E-17 -4.04687310E-02
 -1.52633104E-02 -1.71698679E-17  8.84138936E-17 -4.37967541E-01 -1.65185178E-01
 -9.10077139E-17 -3.14420430E-16 -5.65557041E-01 -2.13307224E-01  4.86904712E-17
 -4.75022280E-17  6.58495106E-17  1.39188867E-17  4.12160469E-18 -4.57598567E-03
 -1.72589276E-03 -9.74669731E-17 -5.52339069E-16 -2.69340168E-17  1.69981086E-17
 -1.54140811E-01  4.08684805E-01 -9.14200963E-17  3.53104363E-16 -2.37689489E-01
  6.30203522E-01 -2.81455252E-16 -4.79002200E-18  1.46810088E-17 -4.04844907E-17
 -5.85805876E-17  1.52633104E-02 -4.04687310E-02  5.66762873E-18 -5.87511034E-17
  1.65185178E-01 -4.37967541E-01  7.83240835E-17  1.95867118E-16  2.13307224E-01
 -5.65557041E-01 -3.45823799E-17 -3.38251563E-17 -4.33181504E-18  2.52741145E-18
  1.69111578E-16  1.72589276E-03 -4.57598567E-03  1.80637880E-01  1.97351723E+00
  1.18962347E-01 -1.60903086E-01 -2.46971453E-16 -3.98222208E-17  2.75572511E-01
 -1.62529696E+00 -3.49055521E-16 -5.57520461E-17  7.69603528E-01 -2.18577192E-03
 -2.18577192E-03  2.36162560E-02 -5.63096300E-17  2.39720112E-16  2.54644808E-16
 -3.11790726E-02  1.30397282E-01  1.17309096E-16 -1.06120172E-16 -1.80212042E-01
 -9.06567890E-02  1.90442184E-16  6.21936118E-17 -1.25016372E-01  4.77888015E-03
  4.77888015E-03  1.82117560E-02 -2.15784901E-16  1.38044897E-16 -2.47218299E-16
  3.13601215E-01 -2.18583438E+00  1.53280370E-02  2.52281485E-01  2.18364891E-15
 -1.70904062E-15 -1.46882170E-01 -2.88459423E+00 -1.88414756E-15  2.71106138E-15
 -3.70432343E+00  2.58343380E-03  2.58343380E-03  5.06992200E-02  1.61612797E-16
  1.75478590E-16  4.47006949E-16 -1.24189705E-01  1.10025092E-01 -1.10600551E-15
  1.06637041E-15 -8.21084295E-02  4.32824855E+00  1.02856670E-15 -1.47160523E-15
 -1.76775565E+00 -5.79147245E-02 -5.79147245E-02  1.88383590E-02  5.95575144E-17
  6.44799891E-17  3.36117151E-16 -3.18271143E-15 -1.46100495E-15 -2.51083800E-16
 -5.22698035E-15  3.38668021E-01 -9.36884418E-01  1.37797270E-15  1.22635393E-15
 -3.78538466E-01  1.04718122E+00 -8.17195722E-15 -9.61302963E-16  8.87156603E-16
 -1.62229484E-15 -3.21302285E-18  9.02815936E-03 -2.49753189E-02 -1.03354500E-16
 -2.72975560E-15  5.32227578E-02 -1.47234369E-01  1.11007728E-15  1.13369286E-14
 -6.40592743E-03  1.77212291E-02 -5.01054770E-15 -1.43926947E-15 -1.14298105E-16
 -1.46327837E-16  4.61875063E-16 -2.75065193E-02  7.60934832E-02  1.33581453E-15
 -1.36634102E-15  7.79102693E-17  3.50918312E-16 -9.36884418E-01 -3.38668021E-01
 -1.07836079E-15 -1.07861216E-15  1.04718122E+00  3.78538466E-01  1.49195117E-16
 -4.02862968E-16 -3.69625884E-16  2.10443092E-16 -3.37811868E-17 -2.49753189E-02
 -9.02815936E-03 -1.38896524E-16  1.10880194E-15 -1.47234369E-01 -5.32227578E-02
 -3.27850227E-16 -2.14766253E-16  1.77212291E-02  6.40592743E-03 -8.81995197E-16
  1.23002258E-16  2.26198312E-16  7.47818671E-17 -1.78347772E-16  7.60934832E-02
  2.75065193E-02  4.09330864E-01  2.80430623E-01  4.06291089E-02  6.22649996E-01
  7.14678934E-16 -2.34841692E-15  1.92326125E-01  1.05871710E+00 -8.31881260E-16
  1.53542647E-15  1.41973745E+00 -1.80777193E-02 -1.80777193E-02  2.05809320E-01
 -3.63964108E-16 -5.66355007E-16 -2.67975836E-16  5.74282980E-02 -2.55449305E-01
  1.58585611E-15 -2.92174927E-15 -5.60668391E-01 -1.64378621E+00 -1.26109427E-15
  3.17905364E-15  1.89392434E+00 -4.89832104E-02 -4.89832104E-02 -1.12382588E-01
 -2.42313445E-16  3.71036779E-17  5.79352991E-17  5.03868361E-01  1.22408703E+00
  4.78997153E-02 -2.37209728E-01  8.43973498E-16  4.82146113E-16 -7.55384946E-01
 -4.69639602E-01 -8.76465345E-16 -4.62460043E-15  2.47032345E+00 -5.47416054E-02
 -5.47416054E-02  1.55803381E-01  5.66994685E-16  5.12939959E-17 -6.08411905E-16
 -3.12134529E-02 -1.78848088E-01  2.22569787E-15 -7.01559709E-15 -1.23746444E-01
 -8.40977933E-01 -2.97770547E-15  1.00533797E-14 -3.22660159E-01  2.00422967E-02
  2.00422967E-02 -2.13970045E-01  3.09604927E-16 -1.26778832E-16  3.03333414E-16
 -3.73392352E-15  1.42065884E-14 -7.35873595E-16  1.75764613E-14 -9.32532356E-02
  2.62648368E-01  2.47396596E-15 -2.49068600E-15  2.52414175E-01 -7.10926229E-01
  1.51880896E-14  3.04353662E-15 -6.91527125E-16 -9.03828620E-16  3.55137990E-16
  2.53882536E-02 -7.15061878E-02  9.50363679E-16  1.21736355E-14  3.18266630E-01
 -8.96400113E-01  6.68680174E-15 -3.87289442E-14 -4.55037888E-01  1.28161729E+00
  9.62689276E-15  5.32597333E-15 -5.91827629E-16  5.19198454E-15 -1.42645061E-15
 -2.92905839E-03  8.24971275E-03 -1.61820511E-15  2.77030246E-16 -5.07928718E-17
 -1.02578230E-15  2.62648368E-01  9.32532356E-02  3.18774081E-16 -4.41022622E-15
 -7.10926229E-01 -2.52414175E-01 -4.50402445E-15  1.12706387E-15 -2.12530891E-16
 -3.68257286E-16  4.02544714E-16 -7.15061878E-02 -2.53882536E-02 -7.57962967E-17
 -3.28265155E-15 -8.96400113E-01 -3.18266630E-01 -3.14753981E-16  1.05987875E-14
  1.28161729E+00  4.55037888E-01 -2.20447925E-15  6.91885288E-16 -2.37765489E-15
 -6.76694260E-16 -1.26321323E-16  8.24971275E-03  2.92905839E-03 -3.32679028E-01
  2.43620750E+00 -4.35504990E-02  1.50747015E+00  8.00007925E-16 -5.25837952E-15
 -3.60446428E-01 -2.32205804E+00 -3.40593479E-15  9.89412627E-15  2.18046961E+00
  1.41686233E-01  1.41686233E-01 -2.19090169E-02 -4.03262123E-16 -3.99295435E-16
  9.40686595E-16  3.49496113E-02  2.39680854E-02 -3.60336687E-15  8.63444801E-15
  3.11900346E-01 -1.11519113E+00  4.37906168E-15 -1.31012168E-14  9.74973204E-02
 -3.41997628E-03 -3.41997628E-03  1.12253057E-01  2.09526399E-17 -2.28416232E-16
  3.45170501E-16 -1.08426033E+00  1.19471293E-01  3.23207315E-02 -8.79328054E-02
 -8.76551381E-16  1.39499258E-15 -7.41362414E-01 -6.12461801E-01  1.89901889E-15
 -2.39468341E-15 -1.09518071E+00 -4.18698418E-02 -4.18698418E-02  9.40866299E-02
  5.98647505E-16  1.52797956E-15 -1.48591515E-16 -5.63238524E-02  2.63866874E-01
  7.62239290E-16 -1.82997840E-15 -6.98534698E-01  1.22489823E+00 -2.31562696E-15
  3.01698462E-15 -4.95575358E-02  6.53953150E-02  6.53953150E-02 -1.97192907E-01
  7.76977467E-16 -6.89917236E-16  5.16065286E-16 -2.58334664E-01 -2.08169924E+00
 -3.61997721E-02 -1.40223892E-01 -1.01493071E-14  5.79842181E-15  1.67106991E-01
 -5.02141980E+00  1.31088208E-14 -8.88523160E-15 -5.72325918E+00  1.62950925E-01
  1.62950925E-01 -3.02958315E-01  2.13842784E-14  2.06274211E-14  5.65679190E-15
 -9.14891651E-02 -1.90649119E+00 -2.23444758E-15 -7.47323290E-15  1.73205224E-02
  9.35846817E+00 -9.71715412E-15  1.00508147E-14 -3.15507357E+00 -1.77583630E-01
 -1.77583630E-01 -2.75340201E-01  1.78873688E-14 -1.30428865E-14 -6.54767942E-16
 -1.85089402E-14 -1.21302536E-13 -2.18947261E-15 -4.08757203E-15 -1.02205134E-15
  7.35002417E-16  8.90398042E-15 -2.86047053E-13  1.34124761E-15  6.75654930E-15
 -3.34569833E-13  6.15094533E-01 -6.15094533E-01 -1.83762027E-14  7.08366896E-08
  7.32237925E-15 -2.68008215E-14 -5.51517321E-15 -1.02916829E-13 -6.89488661E-16
  1.62214239E-14 -4.18355867E-16  5.33714801E-13 -2.22515954E-15 -1.09062752E-14
 -1.77420884E-13  5.22684437E-01 -5.22684437E-01 -1.61773402E-14  6.01943849E-08
 -4.08115250E-15  1.29915176E-14  8.09320520E-15  6.41541574E-14  9.82709334E-16
  2.67687993E-15  9.13909714E-15 -4.84206073E-15 -5.15780743E-15  1.52734587E-13
 -4.87052846E-15  2.38492734E-15  1.75044804E-13 -6.13463779E-08  6.13463687E-08
  1.03468232E-14  7.10249970E-01 -2.80481433E-14  1.55267873E-14  2.93986922E-15
  5.66413816E-14  1.03733267E-14 -6.67763560E-15  3.58139467E-16 -2.85166123E-13
 -3.53726134E-17  2.83314793E-16  9.60774676E-14 -5.21298613E-08  5.21298705E-08
  1.12199768E-14  6.03544021E-01  2.28553641E-14 -1.01770661E-14  3.49219929E-15
  2.76444949E-14  3.11110216E-16  8.33908547E-16 -6.32199013E-02 -2.23384930E-01
 -3.60898356E-15  6.49612275E-14  3.46259422E-02  1.22349347E-01  7.56568607E-14
  1.67542485E-14 -2.16366167E-14  3.60982722E-15 -4.96880727E-15  1.80712402E-01
  6.38539864E-01  8.65269623E-16  2.56082291E-14 -6.66291808E-02 -2.35431479E-01
 -3.66310038E-16 -1.19993181E-13 -2.99178347E-03 -1.05713442E-02  3.98966739E-14
  1.57848069E-14 -1.43719473E-14  4.51950493E-15 -7.26929673E-15 -1.47240625E-01
 -5.20268713E-01  9.93909938E-15  5.64319772E-14  8.21515247E-16  3.98882232E-15
 -2.23384930E-01  6.32199013E-02 -2.93329176E-15  1.36919740E-13  1.22349347E-01
 -3.46259422E-02  1.58177293E-13 -1.53588830E-14  5.97695361E-15  7.77824815E-15
  3.23884262E-14  6.38539864E-01 -1.80712402E-01  2.23955278E-15  5.05891376E-14
 -2.35431479E-01  6.66291808E-02  2.35759304E-16 -2.52401940E-13 -1.05713442E-02
  2.99178347E-03  8.59810930E-14 -7.25985543E-15  1.33657939E-14  7.21757018E-15
  2.98918493E-14 -5.20268713E-01  1.47240625E-01  1.74647591E-15 -3.64634992E-14
  9.02657854E-16 -6.37351924E-15 -1.72906975E-15 -7.76780447E-16  6.97032581E-15
 -3.39923744E-14 -2.77655106E-16  1.72421201E-15 -6.80295269E-14 -6.24232711E-01
  6.24232711E-01 -5.08938654E-15  2.04133612E-08 -1.79776020E-15  4.48858638E-16
 -1.08597884E-15 -9.83456679E-15  9.69608139E-17  2.51488511E-15 -1.81079339E-15
  8.46981101E-14  7.36412370E-16 -3.56177467E-15 -2.40880542E-14  7.03426429E-01
 -7.03426429E-01 -8.05652416E-15 -2.30031130E-08 -4.12300382E-15 -1.01568620E-15
  4.09445660E-16 -1.97522917E-15 -4.54120539E-16  1.67128296E-15  3.11535019E-16
  2.69434284E-16  1.64723395E-16 -3.82444420E-15  1.43263066E-15 -2.32848634E-15
 -5.04628939E-15 -1.76784891E-08  1.76784860E-08 -1.93307246E-15 -7.20801865E-01
  1.35601261E-15  1.19501687E-15 -7.56137864E-16  2.56497809E-16  5.37642757E-16
 -2.57548141E-15 -2.94334165E-16  1.18452226E-14 -1.32490377E-15  3.23286876E-15
 -3.73013163E-15  1.99212790E-08 -1.99212842E-08 -1.65401515E-15  8.12246861E-01
  3.24029045E-15 -2.75147287E-15 -5.66430289E-15  2.18082882E-15 -2.77153363E-15
 -3.46488212E-15  3.07336315E-01  1.50993036E-01 -1.16928137E-14 -1.54354154E-14
  2.85852593E-01  1.40438174E-01 -6.62667744E-15 -1.00712629E-14 -8.52430711E-15
  1.05194879E-15  8.72283102E-16  9.19627241E-01  4.51808986E-01 -1.87377240E-15
 -4.78154279E-15 -1.53929232E-01 -7.56247829E-02  3.14209022E-16  3.47830317E-14
 -3.98571964E-01 -1.95816725E-01 -2.08458374E-14 -7.57435993E-15 -1.56985129E-14
  1.38566558E-14 -2.38692538E-15  9.84445775E-01  4.83654059E-01 -2.16685119E-14
 -1.87383915E-14 -6.52436679E-15 -2.56363426E-14 -1.50993036E-01  3.07336315E-01
 -2.84505748E-14 -6.65144585E-14 -1.40438174E-01  2.85852593E-01 -6.91628401E-14
 -1.35729787E-14 -2.50749956E-14  1.44943392E-14 -2.53194822E-15 -4.51808986E-01
  9.19627241E-01 -2.40382435E-15 -4.07249341E-14  7.56247829E-02 -1.53929232E-01
  4.17911753E-15  1.49840855E-13  1.95816725E-01 -3.98571964E-01 -7.67723221E-14
 -1.78326475E-14 -2.46789600E-14  4.28823529E-14  5.37080373E-16 -4.83654059E-01
  9.84445775E-01 -6.00164776E-01 -5.84833644E-01 -1.74840440E-01 -3.44329698E-01
  1.37933080E-15 -1.30410899E-14 -5.36726158E-01 -1.88186537E+00  3.26305419E-15
 -1.79725050E-14 -2.05095376E+00 -6.16591664E-01 -6.16591664E-01  4.33594456E-01
 -1.59011482E-15  4.57115589E-15 -4.51766647E-14 -7.32263335E-02 -1.14732134E+00
  2.65587863E-16  6.39688487E-15  2.31849043E-01  4.17290701E+00 -4.27654466E-15
  2.27855129E-14 -2.02339147E+00 -4.86859018E-01 -4.86859018E-01  8.58827364E-01
 -1.65510773E-15  6.15187765E-15 -4.72983928E-14  4.39107574E-01 -3.22313865E-01
  1.72561533E-02 -1.58655439E+00 -1.03210068E-15 -1.27148903E-15 -1.24890496E+00
 -1.66051997E+00  1.54167997E-15 -5.36003945E-15 -8.95340476E-01  7.81053289E-01
  7.81053289E-01 -1.09181555E+00 -1.05141059E-15 -9.22793596E-16 -7.96099359E-15
 -1.98464847E-02  3.30259534E-01  6.84033962E-16  8.21502150E-16 -1.00669699E+00
  2.31854400E+00 -2.03482398E-15  5.25561838E-15 -1.23774921E+00 -5.13008734E-01
 -5.13008734E-01  1.31846619E+00 -5.93331466E-16  2.20560610E-16 -7.07541956E-15
 -1.95785775E-01 -1.16119754E+00 -2.68707981E-02  2.47839654E-01 -2.19081663E-15
  3.09712855E-15  3.40512227E-01 -3.36446494E+00  2.95740071E-15 -5.41893542E-15
 -3.37841743E+00 -1.25126725E-01 -1.25126725E-01  7.89854765E-02  2.05540533E-15
 -5.02383320E-15 -1.95143157E-15 -5.41173275E-01  5.92496749E-01  3.31539008E-15
 -1.58210197E-15  3.22183081E-01  7.25892390E+00 -2.46312711E-15  5.58946413E-15
 -2.12462845E+00 -1.67434353E+00 -1.67434353E+00 -1.59711456E+00 -1.61371026E-15
 -2.81490919E-15 -1.02808871E-15  4.19804386E-01 -6.60904436E-01 -4.49799643E-01
  2.89770660E+00  9.77508088E-16  7.10950265E-16 -3.79281433E-01  9.14126557E-01
 -1.59310559E-15 -6.17380404E-16 -4.35648988E-01 -1.55956099E+00 -1.55956099E+00
 -2.45336986E+00  2.14563637E-15 -3.00526396E-15  4.43750848E-16  5.08653488E-02
  3.67698125E-01  9.63998696E-16  3.84737358E-16 -5.89257671E-01  1.01633241E-01
  2.83434239E-15 -9.41610121E-16 -1.93984047E-01  3.95392617E-02  3.95392617E-02
  3.86548946E-01 -6.07480253E-16 -2.79682920E-15  5.36215397E-16
Orthonormal basis                          R   N=        1024
  5.07113595E-02  8.97796422E-02  3.21766198E-02  1.49708472E-01  4.58923071E-20
  3.58533649E-22  4.34701872E-02  1.59879171E-01  1.41471892E-21  6.90545531E-24
  5.07053683E-02  1.05013649E-01  1.05013649E-01  1.35202025E-01  3.79612267E-44
  7.75457470E-23  2.66506031E-25  2.29317285E-02  1.16091250E-01  4.52490104E-22
  1.91322572E-24 -5.19621131E-02  1.42072822E-01  9.20490998E-22  4.52509809E-24
 -8.98077898E-02  8.94328293E-02  8.94328293E-02  1.17390205E-01 -5.76503013E-46
 -6.98018549E-22 -2.66192931E-24 -1.61367639E-01 -1.76968514E-01 -2.67726691E-02
 -1.01112209E-01  1.82603284E-18 -7.13294077E-21  1.60114447E-01 -8.46090267E-02
  6.38597997E-20  6.80308440E-22  2.37555310E-01 -8.18289264E-02 -8.18289264E-02
 -6.17966210E-02  0.00000000E+00  9.15682805E-21  7.44631036E-23  3.72080121E-02
  1.56636766E-01  2.62573782E-20  2.45003773E-22  3.81312111E-02  1.33529470E-01
  4.70615733E-20  4.92867363E-22  1.19341039E-01  1.26645118E-01  1.26645118E-01
  1.03684408E-01 -1.83283805E-40 -3.06807718E-20 -2.65686176E-22 -3.10782824E-17
  1.00030658E-16  2.32383937E-16 -3.55138600E-16  2.84173058E-01  7.88019990E-03
 -1.36405718E-16 -2.35353699E-16  3.41109039E-01  9.45905089E-03  6.02019032E-17
  2.01542927E-16  1.29222531E-16  1.24716143E-16 -7.23203961E-17  1.51087333E-01
  4.18969481E-03  9.67458689E-17 -1.73318461E-16  2.48128609E-01  6.88067705E-03
  3.40327301E-17 -8.68207144E-17  3.45058515E-01  9.56857097E-03 -1.61564179E-16
  1.49838074E-16  1.95038322E-16  1.03007463E-16 -1.35252919E-17 -1.53072337E-01
 -4.24473954E-03  9.64960664E-18  3.15011034E-17  6.89376230E-17 -2.86817101E-17
 -7.88019990E-03  2.84173058E-01 -2.00950008E-17  8.11838632E-18 -9.45905089E-03
  3.41109039E-01  2.66655071E-17  8.59381993E-18 -8.12416721E-17 -5.22379907E-17
  1.58200866E-17 -4.18969481E-03  1.51087333E-01  1.66764664E-16  7.93770579E-18
 -6.88067705E-03  2.48128609E-01  2.01940064E-17  2.77731136E-18 -9.56857097E-03
  3.45058515E-01 -9.47488333E-17 -6.57220166E-17  2.43959769E-17  2.37239376E-17
 -4.53943928E-17  4.24473954E-03 -1.53072337E-01  2.75138878E-01  1.95218370E-01
 -5.87754624E-02 -1.00792389E-01  2.04601832E-17 -1.27876145E-18 -2.76286034E-01
  3.57915536E-02 -5.62956129E-18 -7.12445932E-20 -1.29214669E-01 -1.01873130E-01
 -1.01873130E-01  1.46604807E-02  1.45378345E-31 -6.82532033E-18 -2.06602750E-19
  4.48038828E-02  1.42511658E-01 -8.66361874E-18 -2.23451267E-19  3.59003378E-01
  1.36781323E-01 -9.30507424E-18 -1.97218869E-19  3.11245689E-01  1.27221631E-01
  1.27221631E-01  3.92002402E-02  3.23572177E-32  2.40984600E-18  8.68966503E-20
 -1.00997122E-15 -2.95534810E-16  7.79659235E-16  4.87992110E-16 -8.83345111E-02