CN_new_1 0.0                                                            
SP        RB3LYP                                                      6-31G(d)            
Number of atoms                            I                6
Info1-9                                    I   N=           9
          15          15           0           0           0         110
           1          18        -502
Full Title                                 C   N=           1
CN_new_1 0.0
Route                                      C   N=           2
# nosymm b3lyp/6-31G*   
Charge                                     I                0
Multiplicity                               I                1
Number of electrons                        I               22
Number of alpha electrons                  I               11
Number of beta electrons                   I               11
Number of basis functions                  I               51
Number of independent functions            I               51
Number of point charges in /Mol/           I                0
Number of translation vectors              I                0
Atomic numbers                             I   N=           6
           7           6           6           1           1           1
Nuclear charges                            R   N=           6
  7.00000000E+00  6.00000000E+00  6.00000000E+00  1.00000000E+00  1.00000000E+00
  1.00000000E+00
Current cartesian coordinates              R   N=          18
  1.49018133E-03 -4.30857556E-06  4.95561756E+00  0.00000000E+00  0.00000000E+00
  2.76200490E+00  0.00000000E+00  0.00000000E+00  0.00000000E+00 -1.94114338E+00
  1.86013679E-02 -7.14397166E-01  9.86615182E-01  1.67182897E+00 -7.14299411E-01
  9.54509868E-01 -1.69026799E+00 -7.14687580E-01
Number of symbols in /Mol/                 I                0
Force Field                                I                0
Atom Types                                 C   N=           6
                                                            
            
Int Atom Types                             I   N=           6
           0           0           0           0           0           0
MM charges                                 R   N=           6
  0.00000000E+00  0.00000000E+00  0.00000000E+00  0.00000000E+00  0.00000000E+00
  0.00000000E+00
Integer atomic weights                     I   N=           6
          14          12          12           1           1           1
Real atomic weights                        R   N=           6
  1.40030740E+01  1.20000000E+01  1.20000000E+01  1.00782504E+00  1.00782504E+00
  1.00782504E+00
Atom fragment info                         I   N=           6
           0           0           0           0           0           0
Atom residue num                           I   N=           6
           0           0           0           0           0           0
Nuclear spins                              I   N=           6
           2           0           0           1           1           1
Nuclear ZEff                               R   N=           6
 -4.55000000E+00 -3.60000000E+00 -3.60000000E+00 -1.00000000E+00 -1.00000000E+00
 -1.00000000E+00
Nuclear ZNuc                               R   N=           6
  7.00000000E+00  6.00000000E+00  6.00000000E+00  1.00000000E+00  1.00000000E+00
  1.00000000E+00
Nuclear QMom                               R   N=           6
  2.04400000E+00  0.00000000E+00  0.00000000E+00  0.00000000E+00  0.00000000E+00
  0.00000000E+00
Nuclear GFac                               R   N=           6
  4.03761000E-01  0.00000000E+00  0.00000000E+00  2.79284600E+00  2.79284600E+00
  2.79284600E+00
MicOpt                                     I   N=           6
          -1          -1          -1          -1          -1          -1
Number of residues                         I                0
Number of secondary structures             I                0
Number of contracted shells                I               18
Number of primitive shells                 I               45
Pure/Cartesian d shells                    I                1
Pure/Cartesian f shells                    I                0
Highest angular momentum                   I                2
Largest degree of contraction              I                6
Shell types                                I   N=          18
           0          -1          -1           2           0          -1
          -1           2           0          -1          -1           2
           0           0           0           0           0           0
Number of primitives per shell             I   N=          18
           6           3           1           1           6           3
           1           1           6           3           1           1
           3           1           3           1           3           1
Shell to atom map                          I   N=          18
           1           1           1           1           2           2
           2           2           3           3           3           3
           4           4           5           5           6           6
Primitive exponents                        R   N=          45
  4.17351146E+03  6.27457911E+02  1.42902093E+02  4.02343293E+01  1.28202129E+01
  4.39043701E+00  1.16263619E+01  2.71627981E+00  7.72218397E-01  2.12031498E-01
  8.00000000E-01  3.04752488E+03  4.57369518E+02  1.03948685E+02  2.92101553E+01
  9.28666296E+00  3.16392696E+00  7.86827235E+00  1.88128854E+00  5.44249258E-01
  1.68714478E-01  8.00000000E-01  3.04752488E+03  4.57369518E+02  1.03948685E+02
  2.92101553E+01  9.28666296E+00  3.16392696E+00  7.86827235E+00  1.88128854E+00
  5.44249258E-01  1.68714478E-01  8.00000000E-01  1.87311370E+01  2.82539436E+00
  6.40121692E-01  1.61277759E-01  1.87311370E+01  2.82539436E+00  6.40121692E-01
  1.61277759E-01  1.87311370E+01  2.82539436E+00  6.40121692E-01  1.61277759E-01
Contraction coefficients                   R   N=          45
  1.83477216E-03  1.39946270E-02  6.85865518E-02  2.32240873E-01  4.69069948E-01
  3.60455199E-01 -1.14961182E-01 -1.69117479E-01  1.14585195E+00  1.00000000E+00
  1.00000000E+00  1.83473713E-03  1.40373228E-02  6.88426223E-02  2.32184443E-01
  4.67941348E-01  3.62311985E-01 -1.19332420E-01 -1.60854152E-01  1.14345644E+00
  1.00000000E+00  1.00000000E+00  1.83473713E-03  1.40373228E-02  6.88426223E-02
  2.32184443E-01  4.67941348E-01  3.62311985E-01 -1.19332420E-01 -1.60854152E-01
  1.14345644E+00  1.00000000E+00  1.00000000E+00  3.34946043E-02  2.34726953E-01
  8.13757326E-01  1.00000000E+00  3.34946043E-02  2.34726953E-01  8.13757326E-01
  1.00000000E+00  3.34946043E-02  2.34726953E-01  8.13757326E-01  1.00000000E+00
P(S=P) Contraction coefficients            R   N=          45
  0.00000000E+00  0.00000000E+00  0.00000000E+00  0.00000000E+00  0.00000000E+00
  0.00000000E+00  6.75797439E-02  3.23907296E-01  7.40895140E-01  1.00000000E+00
  0.00000000E+00  0.00000000E+00  0.00000000E+00  0.00000000E+00  0.00000000E+00
  0.00000000E+00  0.00000000E+00  6.89990666E-02  3.16423961E-01  7.44308291E-01
  1.00000000E+00  0.00000000E+00  0.00000000E+00  0.00000000E+00  0.00000000E+00
  0.00000000E+00  0.00000000E+00  0.00000000E+00  6.89990666E-02  3.16423961E-01
  7.44308291E-01  1.00000000E+00  0.00000000E+00  0.00000000E+00  0.00000000E+00
  0.00000000E+00  0.00000000E+00  0.00000000E+00  0.00000000E+00  0.00000000E+00
  0.00000000E+00  0.00000000E+00  0.00000000E+00  0.00000000E+00  0.00000000E+00
Coordinates of each shell                  R   N=          54
  1.49018133E-03 -4.30857556E-06  4.95561756E+00  1.49018133E-03 -4.30857556E-06
  4.95561756E+00  1.49018133E-03 -4.30857556E-06  4.95561756E+00  1.49018133E-03
 -4.30857556E-06  4.95561756E+00  0.00000000E+00  0.00000000E+00  2.76200490E+00
  0.00000000E+00  0.00000000E+00  2.76200490E+00  0.00000000E+00  0.00000000E+00
  2.76200490E+00  0.00000000E+00  0.00000000E+00  2.76200490E+00  0.00000000E+00
  0.00000000E+00  0.00000000E+00  0.00000000E+00  0.00000000E+00  0.00000000E+00
  0.00000000E+00  0.00000000E+00  0.00000000E+00  0.00000000E+00  0.00000000E+00
  0.00000000E+00 -1.94114338E+00  1.86013679E-02 -7.14397166E-01 -1.94114338E+00
  1.86013679E-02 -7.14397166E-01  9.86615182E-01  1.67182897E+00 -7.14299411E-01
  9.86615182E-01  1.67182897E+00 -7.14299411E-01  9.54509868E-01 -1.69026799E+00
 -7.14687580E-01  9.54509868E-01 -1.69026799E+00 -7.14687580E-01
Num ILSW                                   I              100
ILSW                                       I   N=         100
           0           1           0           0           2           0
           0           0           0           0         402          -1
           5           0           0           0           0           0
           0           0           1           0           0           0
           1           1           0           0           0           0
           0           0      100000           0          -1           0
           0           0           0           0           0           0
           0           0           0           1           0           0
           0 -2000000000           1           0           0           0
           0           0           4          52           0           0
           0           0           5           0           0           0
           0           0           0           0           0           1
           0           0           0           0           0           0
           0           0           0           0           0           0
           0           0           0           0           0           0
           0           0           0           0           0           0
           0           0           0           0
Num RLSW                                   I               52
RLSW                                       R   N=          52
  8.00000000E-01  7.20000000E-01  1.00000000E+00  8.10000000E-01  2.00000000E-01
  0.00000000E+00  0.00000000E+00  1.00000000E+00  0.00000000E+00  0.00000000E+00
  0.00000000E+00  0.00000000E+00  1.00000000E+00  0.00000000E+00  0.00000000E+00
  0.00000000E+00  0.00000000E+00  1.00000000E+00  0.00000000E+00  0.00000000E+00
  0.00000000E+00  0.00000000E+00  1.00000000E+00  0.00000000E+00  0.00000000E+00
  0.00000000E+00  0.00000000E+00  1.00000000E+00  0.00000000E+00  0.00000000E+00
  0.00000000E+00  0.00000000E+00  1.00000000E+00  0.00000000E+00  0.00000000E+00
  0.00000000E+00  0.00000000E+00  0.00000000E+00  1.00000000E+00  1.00000000E+00
  0.00000000E+00  1.00000000E+00  0.00000000E+00  0.00000000E+00  0.00000000E+00
  0.00000000E+00  0.00000000E+00  0.00000000E+00  0.00000000E+00  0.00000000E+00
  0.00000000E+00  0.00000000E+00
MxBond                                     I                4
NBond                                      I   N=           6
           1           2           4           1           1           1
IBond                                      I   N=          24
           2           0           0           0           1           3
           0           0           2           4           5           6
           3           0           0           0           3           0
           0           0           3           0           0           0
RBond                                      R   N=          24
  3.00000000E+00  0.00000000E+00  0.00000000E+00  0.00000000E+00  3.00000000E+00
  1.00000000E+00  0.00000000E+00  0.00000000E+00  1.00000000E+00  1.00000000E+00
  1.00000000E+00  1.00000000E+00  1.00000000E+00  0.00000000E+00  0.00000000E+00
  0.00000000E+00  1.00000000E+00  0.00000000E+00  0.00000000E+00  0.00000000E+00
  1.00000000E+00  0.00000000E+00  0.00000000E+00  0.00000000E+00
Virial Ratio                               R      2.009789962929953E+00
SCF Energy                                 R     -1.327549261542977E+02
Total Energy                               R     -1.327549261542977E+02
RMS Density                                R      2.816924671732795E-09
Job Status                                 I                1
Nuclear derivative order                   I                0
External E-field                           R   N=          35
  0.00000000E+00  0.00000000E+00  0.00000000E+00  0.00000000E+00  0.00000000E+00
  0.00000000E+00  0.00000000E+00  0.00000000E+00  0.00000000E+00  0.00000000E+00
  0.00000000E+00  0.00000000E+00  0.00000000E+00  0.00000000E+00  0.00000000E+00
  0.00000000E+00  0.00000000E+00  0.00000000E+00  0.00000000E+00  0.00000000E+00
  0.00000000E+00  0.00000000E+00  0.00000000E+00  0.00000000E+00  0.00000000E+00
  0.00000000E+00  0.00000000E+00  0.00000000E+00  0.00000000E+00  0.00000000E+00
  0.00000000E+00  0.00000000E+00  0.00000000E+00  0.00000000E+00  0.00000000E+00
IOpCl                                      I                0
IROHF                                      I                0
Alpha Orbital Energies                     R   N=          51
 -1.43332025E+01 -1.02405646E+01 -1.02317732E+01 -9.02304627E-01 -7.76826715E-01
 -5.16464774E-01 -4.64981795E-01 -4.64973277E-01 -3.58217199E-01 -3.26262341E-01
 -3.26261091E-01  3.66148435E-02  3.66288846E-02  8.36638500E-02  1.60131000E-01
  1.60148174E-01  1.84290507E-01  2.84054047E-01  5.28103829E-01  5.28107524E-01
  5.77635052E-01  6.27121560E-01  6.27151910E-01  6.80765648E-01  7.88795300E-01
  8.08530079E-01  8.08566097E-01  8.49354853E-01  8.49384418E-01  8.83884643E-01
  1.04660214E+00  1.37738171E+00  1.40373907E+00  1.40376060E+00  1.52285169E+00
  1.52285286E+00  1.60048806E+00  1.89048127E+00  1.89069725E+00  1.96181996E+00
  1.96210565E+00  2.14509465E+00  2.20414952E+00  2.20425965E+00  2.74224851E+00
  2.75148567E+00  2.75152746E+00  3.17011228E+00  3.99337139E+00  4.10016812E+00
  4.54711787E+00
Alpha MO coefficients                      R   N=        2601
  9.92782528E-01  3.45507968E-02 -1.65223240E-06  1.19159320E-08 -2.24573372E-03
  6.32488173E-03 -8.41136556E-07  1.39330013E-09 -1.07338028E-03 -8.34342552E-03
 -8.34342617E-03 -7.00435645E-03  5.48790286E-10  1.13265899E-06 -3.73484508E-09
  5.00676430E-05  1.88201475E-04 -5.78006937E-07  2.95749009E-09 -7.06795242E-04
 -1.93277748E-03 -1.18416681E-06  5.95827990E-10 -2.24438954E-03  4.52148367E-05
  4.52159309E-05 -1.66822929E-03 -3.11232643E-10 -1.12729554E-06  1.20907870E-09
  3.28344163E-05 -8.53004937E-05 -7.50321156E-08 -5.93262989E-11  2.38917915E-04
 -1.28120919E-03  3.28506596E-07 -1.05937261E-08 -2.95378197E-04  5.20202360E-05
  5.20556458E-05  5.08959286E-04 -7.75455963E-10 -1.18661940E-07 -2.13878956E-09
  3.40087058E-05  7.76333040E-05  3.39407150E-05  7.75599827E-05  3.39401634E-05
  7.75512915E-05 -6.59285871E-06  9.53823699E-05 -1.77457753E-07 -6.53657059E-09
 -2.14198197E-04  1.74972329E-03 -1.07919896E-06  5.57993869E-08 -2.15010230E-04
 -2.52138277E-05 -2.52185134E-05  1.01459287E-04  1.90620765E-10  3.84897279E-07
 -1.03843011E-08  1.80783643E-02  6.76396231E-04 -5.13762126E-08  3.10154257E-08
  2.76003067E-04  5.08003930E-03 -1.43512116E-07 -1.11111747E-07 -4.59495337E-03
 -3.66862999E-04 -3.66854917E-04 -1.00744106E-03 -1.09483573E-08 -3.36228425E-08
 -1.40789211E-09  9.92756555E-01  5.01813658E-02 -3.67311340E-08  5.75286978E-08
  4.74712975E-04 -1.93329694E-02  1.20135861E-07 -3.08429208E-07 -2.15481875E-03
 -9.12748052E-03 -9.12746884E-03 -9.07454951E-03 -3.51738395E-09  1.05200410E-08
  1.03774852E-08  3.64551831E-05  2.72238799E-03  3.64583426E-05  2.72248698E-03
  3.64298307E-05  2.72211019E-03 -4.50495555E-04  4.58922071E-04  1.32068459E-07
 -2.87625124E-09  3.46957418E-04 -1.15016793E-02  4.89033233E-06 -1.66928520E-08
  4.22509693E-03  3.36357804E-04  3.36358459E-04  1.68866575E-04 -6.39899259E-12
 -6.61639898E-07  6.78338372E-09  9.92450275E-01  4.96905405E-02  3.96457506E-07
  2.55579455E-08 -2.27749471E-04 -5.35252786E-03  3.60608527E-06 -1.63447228E-08
  1.25599861E-02 -1.02374054E-02 -1.02374113E-02 -8.11185582E-03 -6.49898756E-10
  1.17303199E-06 -2.06804249E-09 -1.84740111E-02 -1.40440749E-03  1.54002365E-07
  8.24265450E-09 -5.28671447E-04  1.04516567E-02 -1.48787544E-06 -1.86919976E-08
  4.63504682E-03 -4.35163106E-05 -4.36872523E-05 -8.30822656E-04 -2.32483503E-09
 -2.05507392E-08  1.32355328E-08 -3.00942383E-04  1.44326139E-04 -3.00644315E-04
  1.44901164E-04 -3.00656459E-04  1.44855838E-04 -1.77417390E-01  3.49261362E-01
 -1.27516711E-04  6.30659933E-07 -1.95504529E-01  4.36814580E-01 -7.31694149E-05
  2.27307383E-08 -8.96637773E-02 -1.82789343E-02 -1.82789402E-02  9.18974339E-03
 -3.36661839E-08  2.27478838E-05 -1.22294124E-07 -1.59668082E-01  2.97479789E-01
  1.42335671E-04  5.30576508E-07  1.82929373E-01  1.00620829E-01 -5.95337258E-05
  1.10087394E-06 -1.46331780E-01 -2.04450493E-02 -2.04450672E-02  1.42347586E-02
  5.71433121E-08  2.25504931E-05 -1.05309194E-07 -3.92299690E-02  7.80788406E-02
  6.31087293E-06  2.29416421E-06  3.41696428E-02 -3.21434765E-02  3.34657039E-05
  7.10567320E-07 -3.59241806E-02 -1.10287408E-03 -1.10116272E-03  6.19347820E-03
  3.28574716E-07  3.49581805E-06  3.01522296E-07  1.98720695E-02 -6.86393669E-04
  1.98724432E-02 -6.99938028E-04  1.98691296E-02 -7.00095283E-04  6.41810779E-02
 -1.31157235E-01  5.49485389E-05  5.52771637E-07  5.74856912E-02 -1.53382008E-01
  2.25843456E-05 -7.64887100E-07  1.92483869E-02  6.50597414E-03  6.50598774E-03
 -2.45144619E-03 -2.69301380E-09 -1.19741911E-05  2.23405252E-08 -3.94394909E-02
  8.37761627E-02 -6.43964576E-05  2.72129445E-06 -2.32033423E-01  6.14871498E-02
  5.41465084E-06  2.35473723E-06  1.44154303E-02 -2.14447569E-03 -2.14462747E-03
  1.18873700E-02  1.91751263E-07 -6.28990052E-06 -4.80852624E-07 -1.88453940E-01
  3.65476834E-01 -7.31486279E-06  1.36062876E-05  4.02509718E-02  3.64897678E-01
 -1.20527868E-05  3.53866895E-06  1.58416010E-02 -1.51481905E-04 -1.53159484E-04
 -2.41195659E-03  1.04211058E-06 -2.47388531E-06  2.02412042E-06  1.15160648E-01
  2.13053254E-02  1.15164480E-01  2.13094057E-02  1.15150871E-01  2.13079293E-02
  6.28478293E-02 -1.29794314E-01  6.37679985E-06  5.23096286E-06 -2.64168961E-02
 -2.12808562E-01  1.05898743E-05  1.70554170E-06 -8.67358448E-03  4.30838852E-03
  4.30838597E-03  9.42119663E-03  6.93379930E-09  6.81691112E-07 -5.88309770E-07
 -1.15003641E-01  2.49807403E-01 -9.64387168E-05  1.14662964E-05 -2.69187413E-01
  2.42519178E-01 -1.81893726E-05  5.13641348E-06 -1.57065870E-02 -6.27286328E-03
 -6.27321133E-03 -4.98370105E-03  1.10698779E-07 -3.60462913E-06 -7.85848211E-07
  4.09032413E-02 -8.25344004E-02 -7.73114441E-05  4.15051128E-05  4.01737563E-01
 -6.80379115E-02 -4.62692011E-05  1.90125736E-05  1.79690026E-01 -1.42482907E-02
 -1.42546594E-02  2.50630558E-02  2.93813249E-06 -6.07020531E-07 -2.62803174E-06
 -1.19075401E-01 -7.14769983E-02 -1.19107839E-01 -7.14903815E-02 -1.19178214E-01
 -7.15322137E-02  1.33147338E-05 -2.21341163E-05  7.99083723E-02  4.62128037E-02
 -7.18110788E-05 -8.45454887E-05  3.54897665E-02  2.05252084E-02 -1.68905476E-05
 -1.04595464E-06 -7.15034839E-06  1.51501610E-05 -9.04728480E-06 -8.73449305E-03
 -5.05115152E-03  4.82801852E-06 -6.45117079E-06  1.48187903E-01  8.56991640E-02
 -7.44904429E-05 -8.49283425E-06  6.10882893E-02  3.53277459E-02  1.18861483E-05
 -9.19295202E-04  9.25034736E-04 -6.88213200E-06  6.60893833E-04 -7.56976447E-03
 -4.37757564E-03  2.22007657E-06 -3.39212307E-06  3.79636889E-01  2.19545671E-01
  5.81404322E-05  1.12735910E-05  1.77800954E-01  1.02823089E-01  3.15110298E-05
 -1.45513873E-02  1.45497174E-02  2.94518373E-06  1.03707930E-02 -5.82165501E-03
 -3.36599159E-03 -2.15706807E-01 -1.55284278E-01  2.18256930E-01  1.57114305E-01
 -2.58346402E-03 -1.86107053E-03 -2.04426966E-05  3.86486067E-05 -4.62131489E-02
  7.99141188E-02  5.48867876E-05  1.01811142E-04 -2.05256933E-02  3.54952395E-02
  1.28851250E-05 -5.78477969E-07  3.63669156E-06 -1.12710674E-05 -1.50775062E-05
  5.05132697E-03 -8.73466233E-03  1.94354809E-05 -4.64368052E-05 -8.56981049E-02
  1.48191406E-01  8.82230036E-05 -5.04491293E-05 -3.53270038E-02  6.10875425E-02
 -8.88348470E-06  5.68362021E-04 -5.69320459E-04  4.96271534E-06  1.07020552E-03
  4.37708512E-03 -7.56874946E-03 -2.81478056E-07  6.22310485E-07 -2.19544166E-01
  3.79635019E-01 -7.42912323E-05 -2.44885918E-05 -1.02828261E-01  1.77810302E-01
 -3.86896838E-05  8.98313070E-03 -8.97307228E-03 -9.70540295E-06  1.67984301E-02
  3.36910623E-03 -5.82463981E-03  1.27526678E-01  9.18042855E-02  1.23071190E-01
  8.85951076E-02 -2.50521065E-01 -1.80343363E-01 -1.13216125E-01  2.46486570E-01
  5.57665443E-04 -2.04915019E-05  5.04092400E-01  3.57448537E-01  3.44463078E-04
 -1.12057390E-05  2.98581008E-01  5.59742992E-03  5.59748807E-03 -4.55031809E-02
 -3.99314003E-08 -5.87106591E-05  1.68933504E-06  6.57602261E-02 -1.35121670E-01
  7.71952675E-05 -2.11027139E-05 -2.54684654E-01 -9.82094042E-02  1.54041793E-04
 -1.17270770E-05  1.31071165E-01  4.42805749E-03  4.42761626E-03  2.20829803E-02
 -4.59580966E-09  2.10130446E-05 -7.20518179E-07 -1.35714755E-02  2.41992838E-02
 -5.27771680E-05 -7.13634119E-06  1.26479330E-01  1.77370381E-01 -6.75678099E-05
 -3.78396614E-06  1.26283509E-01 -4.09362207E-03 -4.10026588E-03 -1.53076653E-03
  1.71123385E-07  5.05059880E-06 -8.42607977E-07 -2.17278940E-02 -2.33101989E-02
 -2.17851307E-02 -2.33417634E-02 -2.17900894E-02 -2.33439470E-02  3.68663705E-05
 -7.95257804E-05  4.04902304E-01 -2.03699219E-01 -5.57194626E-04 -8.60366263E-05
  2.33129521E-01 -1.17282339E-01 -3.36982810E-04 -1.89797133E-05 -2.35127981E-05
  5.65079308E-05  2.03957471E-05 -2.86206581E-02  1.43986273E-02  8.13594192E-06
 -1.95144879E-05  3.38182344E-01 -1.70134631E-01  3.90673328E-06 -9.60561245E-05
  2.02468183E-01 -1.01860393E-01 -2.13944037E-04  6.36119282E-04 -6.14192109E-04
 -3.44122279E-05  3.21253220E-04  2.41519704E-02 -1.21502104E-02  6.11804980E-06
 -2.54594799E-06 -1.25774256E-01  6.32764156E-02 -4.98223328E-05 -1.71041129E-04
 -7.04698994E-02  3.54591725E-02 -9.42038976E-05  6.91349019E-03 -6.90644035E-03
  1.82202650E-06  3.73058300E-03  1.62866766E-02 -8.19451887E-03  1.03609877E-01
  1.05557509E-01 -7.71839181E-03 -7.86493606E-03 -9.58585145E-02 -9.76487754E-02
  1.52208714E-05 -3.25966101E-05  2.03702676E-01  4.04903552E-01 -2.52849045E-04
 -3.61624751E-05  1.17285403E-01  2.33128327E-01 -1.51686080E-04 -9.79754296E-06
 -1.04727679E-05  2.63070726E-05 -4.18271750E-05 -1.43986733E-02 -2.86206621E-02
  2.25908234E-06 -5.65160586E-06  1.70134036E-01  3.38180697E-01 -2.23102520E-05
 -3.12869303E-05  1.01859574E-01  2.02472559E-01 -1.02311115E-04  2.98347062E-04
 -2.87187830E-04 -1.69954519E-05 -6.87885698E-04  1.21509213E-02  2.41521724E-02
  3.82747465E-06 -2.20344057E-06 -6.32770754E-02 -1.25780194E-01 -1.49553006E-05
 -8.42187071E-05 -3.54556558E-02 -7.04897587E-02 -3.54439515E-05  3.23274384E-03
 -3.23219518E-03  3.79402734E-06 -7.97883933E-03  8.19259842E-03  1.62865265E-02
  5.08840570E-02  5.18410995E-02 -1.15161232E-01 -1.17301136E-01  6.42800259E-02
  6.54773761E-02  1.87246256E-05 -4.80416528E-05  1.33347034E-01 -4.06387385E-01
 -3.45946442E-06 -1.79517730E-04  1.58195531E-01 -4.82138897E-01  2.96794977E-05
 -1.39715108E-04  1.48099513E-04 -7.80777716E-06 -4.69701670E-04  1.92063276E-03
 -5.85282660E-03 -4.94848227E-05  4.11228804E-05 -1.33107591E-01  4.05679805E-01
 -2.21688414E-05  6.92411701E-04 -1.52348781E-01  4.64335753E-01  6.14364213E-06
 -1.15112387E-03  1.16412099E-03 -3.08202060E-05 -3.74884578E-03  1.20775721E-02
 -3.68053418E-02  7.55562790E-05 -1.29777583E-04 -2.42512427E-02  7.38973762E-02
 -9.79858745E-05 -9.06291134E-04 -1.26290867E-01  3.84935690E-01 -4.62600110E-05
 -3.88090565E-03  3.88210428E-03  1.13169406E-05 -1.24490310E-02 -1.28508000E-02
  3.91630858E-02 -4.78435365E-02 -2.15819404E-01 -9.84044484E-02 -4.44271452E-01
  1.46277711E-01  6.61065470E-01 -4.52454236E-05  1.19942424E-04 -4.06413159E-01
 -1.33343776E-01  6.27758001E-05  4.18409188E-04 -4.82172490E-01 -1.58208027E-01
 -5.52937214E-06  3.89092119E-04 -4.09842748E-04  2.23643549E-05 -1.69131863E-04
 -5.85477230E-03 -1.92078786E-03  1.16592306E-04 -7.79007520E-05  4.05709668E-01
  1.33120246E-01 -1.30527695E-05 -1.74174711E-03  4.64396399E-01  1.52380718E-01
 -3.36007071E-05  3.19325591E-03 -3.23157003E-03  7.98328326E-05 -1.34947357E-03
 -3.68071589E-02 -1.20756772E-02 -1.67447702E-04  2.97981410E-04  7.38690717E-02
  2.42328933E-02  3.12214114E-04  2.04854166E-03  3.84816095E-01  1.26275110E-01
  3.02664441E-04  1.07743747E-02 -1.07816147E-02 -1.60947456E-05 -4.48407679E-03
  3.91653159E-02  1.28498043E-02  1.41246826E-01  6.37331147E-01 -1.12085267E-01
 -5.06920203E-01 -2.92112444E-02 -1.32549702E-01 -3.11019903E-02  3.74339772E-02
  2.94781220E-04 -3.89969915E-05 -8.22939038E-02  7.11805577E-01  1.47345104E-04
 -5.70141974E-05 -3.28591955E-01 -1.30043996E-02 -1.30034738E-02  2.92798548E-03
 -2.86816931E-07  2.39801134E-05 -1.14035435E-06  2.66992236E-02  3.13142060E-02
 -3.47570642E-04  5.19306973E-05  4.07556206E-02 -8.61149890E-01 -6.34734601E-04
  6.82602785E-05 -4.13276547E-01 -2.88599472E-03 -2.87323762E-03  2.45924859E-02
 -7.26720195E-07  4.09581080E-05 -2.72217367E-06 -1.54730028E-01  2.42439758E-01
 -2.31040932E-04  1.22206688E-05 -7.27478202E-02  2.11323790E+00 -7.42387687E-04
  1.08307906E-04 -4.64936704E-01 -9.19804050E-03 -9.16441843E-03 -9.24614395E-03
 -4.90668556E-07 -4.29290801E-05  5.15072734E-06 -2.86841030E-02 -1.08234640E+00
 -2.84343614E-02 -1.08066943E+00 -2.84139807E-02 -1.08050937E+00  1.11096124E-04
 -3.80264017E-04  1.84736815E-01  2.50426756E-02  3.85089233E-04 -4.99461009E-04
  3.25683490E-01  4.41311317E-02  4.59441002E-04  1.34259786E-03 -1.34259320E-03
 -4.76510953E-05 -2.53999065E-04  5.04739007E-03  6.84451831E-04 -2.90633150E-04
  3.31255224E-04 -2.10200593E-01 -2.84821975E-02 -4.22557088E-04  4.77606766E-03
 -5.69359560E-01 -7.71496201E-02 -1.13884670E-03  8.83562243E-03 -8.78313739E-03
 -1.00500379E-04 -1.67516256E-03 -3.04189514E-04 -3.99731928E-05  5.79097541E-05
 -1.62834539E-04  4.41706844E-01  5.98693363E-02 -1.07627324E-03 -3.07707500E-04
  1.32577652E+00  1.79719728E-01 -3.32525540E-03  1.10707173E-02 -1.11527489E-02
  7.12452031E-05 -2.11462195E-03 -1.42532362E-02 -1.93219680E-03  4.46154539E-02
  1.63083857E+00 -2.81324235E-02 -1.02265825E+00 -1.68642300E-02 -6.11916089E-01
 -1.00525934E-05  2.35421021E-05 -2.50494807E-02  1.84811209E-01 -1.54940158E-05
  1.65410394E-04 -4.41659076E-02  3.25715189E-01 -5.99180740E-05 -2.22890800E-04
  2.18892012E-04  3.14395852E-06 -1.53766966E-03 -6.84823947E-04  5.05423995E-03
  1.00313354E-05  6.48689865E-06  2.85110628E-02 -2.10259415E-01 -9.81921103E-06
 -3.17504555E-04  7.72067678E-02 -5.69383507E-01 -1.05956802E-04 -1.45387211E-03
  1.44774474E-03  9.60736290E-06 -1.01514110E-02  4.16014349E-05 -2.97679715E-04
  7.59843384E-06 -4.60025639E-06 -5.98799820E-02  4.41727809E-01  1.05518367E-04
 -1.53933731E-04 -1.79684583E-01  1.32568203E+00  2.22414170E-04 -1.83084642E-03
  1.83321463E-03 -3.40088654E-07 -1.28288786E-02  1.93235572E-03 -1.42569102E-02
 -6.48646420E-03 -2.36991361E-01 -3.54843786E-02 -1.29471063E+00  4.19935861E-02
  1.53202141E+00  5.54146817E-02 -1.56559281E-01 -5.20440269E-04 -2.11899345E-05
  2.10406396E-01 -5.75152093E-01 -1.00283704E-03 -4.21566425E-05  4.33398908E-01
  6.18033558E-03  6.18583012E-03 -1.99492259E-02  4.19957430E-07 -5.03809216E-05
 -8.13432336E-08 -1.28717176E-01  1.51856203E-01  7.51908086E-04  1.91091774E-05
 -2.56147722E-01  2.46073019E+00  2.14131538E-03  8.39504260E-05 -4.18381587E-01
  9.16219269E-03  9.19851049E-03 -3.17235667E-02  2.70037841E-06 -4.29063460E-05
  8.73734052E-07  5.29132745E-02 -1.03109579E-01 -9.99318006E-04 -7.17505189E-05
 -4.21707610E-01 -5.61122798E-01 -2.84331377E-03 -2.41782016E-04 -1.50181470E+00
 -1.92861090E-02 -1.92579651E-02  3.93456633E-02  1.07281747E-06  8.28174217E-05
 -5.15773785E-07 -6.38979721E-02 -3.71284198E-01 -6.39763101E-02 -3.65918425E-01
 -6.39592913E-02 -3.66673999E-01  1.12716486E-01 -1.95665611E-02 -2.71747608E-05
  6.86477930E-06  1.26484100E-02 -4.79461500E+00  1.68336073E-03  6.34180805E-06
  1.76744880E+00  6.34831863E-02  6.34843189E-02  8.76510903E-04 -2.60022238E-07
 -6.09850467E-05  1.01097821E-07  2.95270311E-02 -1.93432672E-01  7.43726759E-05
 -1.38300560E-07  1.78745554E-01  1.17140027E+00  2.10180426E-03 -3.61734707E-05
  5.16288092E+00  5.93242868E-03  5.93932616E-03 -4.88663381E-02 -1.60663578E-06
  4.41397844E-06 -1.47351004E-06 -6.47506319E-02 -2.06444928E-01 -7.87440323E-05
  5.21598718E-05 -3.29618325E-01  3.89570345E+00 -9.51118183E-04  1.24283959E-04
  2.42484497E+00 -6.16897908E-03 -6.18209261E-03 -2.99892403E-02 -2.53796482E-06
  4.09338275E-05  2.04443888E-06  3.46243425E-02 -1.56620625E-01  3.45038224E-02
 -1.55903133E-01  3.45136383E-02 -1.55560319E-01  3.69209513E-06  4.82296851E-06
  1.21150902E-02 -1.20653260E-01 -2.98908500E-05 -2.57639203E-04 -1.26033102E-02
  1.25669769E-01  1.04839190E-04 -1.13472350E-04  1.09896795E-04  8.01745601E-06
 -9.07119752E-04 -6.63201338E-03  6.60709043E-02  4.73915927E-06  3.59531024E-06
  7.89146377E-02 -7.86125416E-01 -4.65861415E-05 -9.35191400E-05 -5.61380874E-02
  5.58826934E-01  3.99698089E-04 -1.32642746E-03  1.32705860E-03 -4.98755444E-06
 -1.18781055E-02  8.89658588E-04 -8.82840604E-03 -1.84423537E-06  5.64712241E-06
  4.46521871E-02 -4.45413481E-01 -2.12537737E-05  2.80828765E-04 -9.96814623E-02
  9.94632006E-01  2.91553290E-04 -8.47414403E-03  8.47265612E-03  1.12415702E-05
 -7.56898164E-02 -8.58682174E-04  8.49360067E-03 -3.61767607E-02 -3.41541662E-02
 -2.66958364E-01 -2.52224880E-01  3.03195453E-01  2.86374197E-01 -1.13598360E-05
 -5.84764071E-05 -1.20699715E-01 -1.21020533E-02  1.23981566E-04  2.96174940E-04
  1.25715049E-01  1.26203249E-02 -3.10845602E-04  9.08146315E-04 -8.45157096E-04
 -1.22860386E-04 -1.19360128E-04  6.60681544E-02  6.62670564E-03  1.12831195E-06
  2.26409709E-04 -7.86088749E-01 -7.88399173E-02  2.69529264E-04 -3.43402787E-04
  5.58764776E-01  5.59999700E-02 -3.67363135E-04  1.02727079E-02 -1.02752662E-02