Et_new_1 0.0                                                            
SP        RB3LYP                                                      6-31G(d)            
Number of atoms                            I               11
Info1-9                                    I   N=           9
          20          20           0           0           0         110
           1          18        -502
Full Title                                 C   N=           1
Et_new_1 0.0
Route                                      C   N=           2
# nosymm b3lyp/6-31G*   
Charge                                     I                0
Multiplicity                               I                1
Number of electrons                        I               26
Number of alpha electrons                  I               13
Number of beta electrons                   I               13
Number of basis functions                  I               61
Number of independent functions            I               61
Number of point charges in /Mol/           I                0
Number of translation vectors              I                0
Atomic numbers                             I   N=          11
           6           1           6           1           1           1
           6           1           1           1           1
Nuclear charges                            R   N=          11
  6.00000000E+00  1.00000000E+00  6.00000000E+00  1.00000000E+00  1.00000000E+00
  1.00000000E+00  6.00000000E+00  1.00000000E+00  1.00000000E+00  1.00000000E+00
  1.00000000E+00
Current cartesian coordinates              R   N=          33
  0.00000000E+00  0.00000000E+00  0.00000000E+00 -9.77296299E-01 -1.67171840E+00
 -7.43871130E-01 -2.67160148E+00  1.88972612E-05  4.01152334E+00 -3.73345443E+00
  1.67339927E+00  3.39910535E+00 -3.73416498E+00 -1.67264433E+00  3.39820072E+00
 -2.63215023E+00 -5.57998330E-04  6.08346103E+00  0.00000000E+00  0.00000000E+00
  2.89514219E+00  1.03785524E+00  1.66043723E+00  3.58616579E+00  1.03741181E+00
 -1.66069977E+00  3.58591587E+00  1.92694530E+00 -2.46662172E-03 -7.62649906E-01
 -9.72849150E-01  1.67438195E+00 -7.43701962E-01
Number of symbols in /Mol/                 I                0
Force Field                                I                0
Atom Types                                 C   N=          11
                                                            
                                                            
            
Int Atom Types                             I   N=          11
           0           0           0           0           0           0
           0           0           0           0           0
MM charges                                 R   N=          11
  0.00000000E+00  0.00000000E+00  0.00000000E+00  0.00000000E+00  0.00000000E+00
  0.00000000E+00  0.00000000E+00  0.00000000E+00  0.00000000E+00  0.00000000E+00
  0.00000000E+00
Integer atomic weights                     I   N=          11
          12           1          12           1           1           1
          12           1           1           1           1
Real atomic weights                        R   N=          11
  1.20000000E+01  1.00782504E+00  1.20000000E+01  1.00782504E+00  1.00782504E+00
  1.00782504E+00  1.20000000E+01  1.00782504E+00  1.00782504E+00  1.00782504E+00
  1.00782504E+00
Atom fragment info                         I   N=          11
           0           0           0           0           0           0
           0           0           0           0           0
Atom residue num                           I   N=          11
           0           0           0           0           0           0
           0           0           0           0           0
Nuclear spins                              I   N=          11
           0           1           0           1           1           1
           0           1           1           1           1
Nuclear ZEff                               R   N=          11
 -3.60000000E+00 -1.00000000E+00 -3.60000000E+00 -1.00000000E+00 -1.00000000E+00
 -1.00000000E+00 -3.60000000E+00 -1.00000000E+00 -1.00000000E+00 -1.00000000E+00
 -1.00000000E+00
Nuclear ZNuc                               R   N=          11
  6.00000000E+00  1.00000000E+00  6.00000000E+00  1.00000000E+00  1.00000000E+00
  1.00000000E+00  6.00000000E+00  1.00000000E+00  1.00000000E+00  1.00000000E+00
  1.00000000E+00
Nuclear QMom                               R   N=          11
  0.00000000E+00  0.00000000E+00  0.00000000E+00  0.00000000E+00  0.00000000E+00
  0.00000000E+00  0.00000000E+00  0.00000000E+00  0.00000000E+00  0.00000000E+00
  0.00000000E+00
Nuclear GFac                               R   N=          11
  0.00000000E+00  2.79284600E+00  0.00000000E+00  2.79284600E+00  2.79284600E+00
  2.79284600E+00  0.00000000E+00  2.79284600E+00  2.79284600E+00  2.79284600E+00
  2.79284600E+00
MicOpt                                     I   N=          11
          -1          -1          -1          -1          -1          -1
          -1          -1          -1          -1          -1
Number of residues                         I                0
Number of secondary structures             I                0
Number of contracted shells                I               28
Number of primitive shells                 I               65
Pure/Cartesian d shells                    I                1
Pure/Cartesian f shells                    I                0
Highest angular momentum                   I                2
Largest degree of contraction              I                6
Shell types                                I   N=          28
           0          -1          -1           2           0           0
           0          -1          -1           2           0           0
           0           0           0           0           0          -1
          -1           2           0           0           0           0
           0           0           0           0
Number of primitives per shell             I   N=          28
           6           3           1           1           3           1
           6           3           1           1           3           1
           3           1           3           1           6           3
           1           1           3           1           3           1
           3           1           3           1
Shell to atom map                          I   N=          28
           1           1           1           1           2           2
           3           3           3           3           4           4
           5           5           6           6           7           7
           7           7           8           8           9           9
          10          10          11          11
Primitive exponents                        R   N=          65
  3.04752488E+03  4.57369518E+02  1.03948685E+02  2.92101553E+01  9.28666296E+00
  3.16392696E+00  7.86827235E+00  1.88128854E+00  5.44249258E-01  1.68714478E-01
  8.00000000E-01  1.87311370E+01  2.82539436E+00  6.40121692E-01  1.61277759E-01
  3.04752488E+03  4.57369518E+02  1.03948685E+02  2.92101553E+01  9.28666296E+00
  3.16392696E+00  7.86827235E+00  1.88128854E+00  5.44249258E-01  1.68714478E-01
  8.00000000E-01  1.87311370E+01  2.82539436E+00  6.40121692E-01  1.61277759E-01
  1.87311370E+01  2.82539436E+00  6.40121692E-01  1.61277759E-01  1.87311370E+01
  2.82539436E+00  6.40121692E-01  1.61277759E-01  3.04752488E+03  4.57369518E+02
  1.03948685E+02  2.92101553E+01  9.28666296E+00  3.16392696E+00  7.86827235E+00
  1.88128854E+00  5.44249258E-01  1.68714478E-01  8.00000000E-01  1.87311370E+01
  2.82539436E+00  6.40121692E-01  1.61277759E-01  1.87311370E+01  2.82539436E+00
  6.40121692E-01  1.61277759E-01  1.87311370E+01  2.82539436E+00  6.40121692E-01
  1.61277759E-01  1.87311370E+01  2.82539436E+00  6.40121692E-01  1.61277759E-01
Contraction coefficients                   R   N=          65
  1.83473713E-03  1.40373228E-02  6.88426223E-02  2.32184443E-01  4.67941348E-01
  3.62311985E-01 -1.19332420E-01 -1.60854152E-01  1.14345644E+00  1.00000000E+00
  1.00000000E+00  3.34946043E-02  2.34726953E-01  8.13757326E-01  1.00000000E+00
  1.83473713E-03  1.40373228E-02  6.88426223E-02  2.32184443E-01  4.67941348E-01
  3.62311985E-01 -1.19332420E-01 -1.60854152E-01  1.14345644E+00  1.00000000E+00
  1.00000000E+00  3.34946043E-02  2.34726953E-01  8.13757326E-01  1.00000000E+00
  3.34946043E-02  2.34726953E-01  8.13757326E-01  1.00000000E+00  3.34946043E-02
  2.34726953E-01  8.13757326E-01  1.00000000E+00  1.83473713E-03  1.40373228E-02
  6.88426223E-02  2.32184443E-01  4.67941348E-01  3.62311985E-01 -1.19332420E-01
 -1.60854152E-01  1.14345644E+00  1.00000000E+00  1.00000000E+00  3.34946043E-02
  2.34726953E-01  8.13757326E-01  1.00000000E+00  3.34946043E-02  2.34726953E-01
  8.13757326E-01  1.00000000E+00  3.34946043E-02  2.34726953E-01  8.13757326E-01
  1.00000000E+00  3.34946043E-02  2.34726953E-01  8.13757326E-01  1.00000000E+00
P(S=P) Contraction coefficients            R   N=          65
  0.00000000E+00  0.00000000E+00  0.00000000E+00  0.00000000E+00  0.00000000E+00
  0.00000000E+00  6.89990666E-02  3.16423961E-01  7.44308291E-01  1.00000000E+00
  0.00000000E+00  0.00000000E+00  0.00000000E+00  0.00000000E+00  0.00000000E+00
  0.00000000E+00  0.00000000E+00  0.00000000E+00  0.00000000E+00  0.00000000E+00
  0.00000000E+00  6.89990666E-02  3.16423961E-01  7.44308291E-01  1.00000000E+00
  0.00000000E+00  0.00000000E+00  0.00000000E+00  0.00000000E+00  0.00000000E+00
  0.00000000E+00  0.00000000E+00  0.00000000E+00  0.00000000E+00  0.00000000E+00
  0.00000000E+00  0.00000000E+00  0.00000000E+00  0.00000000E+00  0.00000000E+00
  0.00000000E+00  0.00000000E+00  0.00000000E+00  0.00000000E+00  6.89990666E-02
  3.16423961E-01  7.44308291E-01  1.00000000E+00  0.00000000E+00  0.00000000E+00
  0.00000000E+00  0.00000000E+00  0.00000000E+00  0.00000000E+00  0.00000000E+00
  0.00000000E+00  0.00000000E+00  0.00000000E+00  0.00000000E+00  0.00000000E+00
  0.00000000E+00  0.00000000E+00  0.00000000E+00  0.00000000E+00  0.00000000E+00
Coordinates of each shell                  R   N=          84
  0.00000000E+00  0.00000000E+00  0.00000000E+00  0.00000000E+00  0.00000000E+00
  0.00000000E+00  0.00000000E+00  0.00000000E+00  0.00000000E+00  0.00000000E+00
  0.00000000E+00  0.00000000E+00 -9.77296299E-01 -1.67171840E+00 -7.43871130E-01
 -9.77296299E-01 -1.67171840E+00 -7.43871130E-01 -2.67160148E+00  1.88972612E-05
  4.01152334E+00 -2.67160148E+00  1.88972612E-05  4.01152334E+00 -2.67160148E+00
  1.88972612E-05  4.01152334E+00 -2.67160148E+00  1.88972612E-05  4.01152334E+00
 -3.73345443E+00  1.67339927E+00  3.39910535E+00 -3.73345443E+00  1.67339927E+00
  3.39910535E+00 -3.73416498E+00 -1.67264433E+00  3.39820072E+00 -3.73416498E+00
 -1.67264433E+00  3.39820072E+00 -2.63215023E+00 -5.57998330E-04  6.08346103E+00
 -2.63215023E+00 -5.57998330E-04  6.08346103E+00  0.00000000E+00  0.00000000E+00
  2.89514219E+00  0.00000000E+00  0.00000000E+00  2.89514219E+00  0.00000000E+00
  0.00000000E+00  2.89514219E+00  0.00000000E+00  0.00000000E+00  2.89514219E+00
  1.03785524E+00  1.66043723E+00  3.58616579E+00  1.03785524E+00  1.66043723E+00
  3.58616579E+00  1.03741181E+00 -1.66069977E+00  3.58591587E+00  1.03741181E+00
 -1.66069977E+00  3.58591587E+00  1.92694530E+00 -2.46662172E-03 -7.62649906E-01
  1.92694530E+00 -2.46662172E-03 -7.62649906E-01 -9.72849150E-01  1.67438195E+00
 -7.43701962E-01 -9.72849150E-01  1.67438195E+00 -7.43701962E-01
Num ILSW                                   I              100
ILSW                                       I   N=         100
           0           1           0           0           2           0
           0           0           0           0         402          -1
           5           0           0           0           0           0
           0           0           1           0           0           0
           1           1           0           0           0           0
           0           0      100000           0          -1           0
           0           0           0           0           0           0
           0           0           0           1           0           0
           0 -2000000000           1           0           0           0
           0           0           4          52           0           0
           0           0           5           0           0           0
           0           0           0           0           0           1
           0           0           0           0           0           0
           0           0           0           0           0           0
           0           0           0           0           0           0
           0           0           0           0           0           0
           0           0           0           0
Num RLSW                                   I               52
RLSW                                       R   N=          52
  8.00000000E-01  7.20000000E-01  1.00000000E+00  8.10000000E-01  2.00000000E-01
  0.00000000E+00  0.00000000E+00  1.00000000E+00  0.00000000E+00  0.00000000E+00
  0.00000000E+00  0.00000000E+00  1.00000000E+00  0.00000000E+00  0.00000000E+00
  0.00000000E+00  0.00000000E+00  1.00000000E+00  0.00000000E+00  0.00000000E+00
  0.00000000E+00  0.00000000E+00  1.00000000E+00  0.00000000E+00  0.00000000E+00
  0.00000000E+00  0.00000000E+00  1.00000000E+00  0.00000000E+00  0.00000000E+00
  0.00000000E+00  0.00000000E+00  1.00000000E+00  0.00000000E+00  0.00000000E+00
  0.00000000E+00  0.00000000E+00  0.00000000E+00  1.00000000E+00  1.00000000E+00
  0.00000000E+00  1.00000000E+00  0.00000000E+00  0.00000000E+00  0.00000000E+00
  0.00000000E+00  0.00000000E+00  0.00000000E+00  0.00000000E+00  0.00000000E+00
  0.00000000E+00  0.00000000E+00
MxBond                                     I                4
NBond                                      I   N=          11
           4           1           4           1           1           1
           4           1           1           1           1
IBond                                      I   N=          44
           2           7          10          11           1           0
           0           0           4           5           6           7
           3           0           0           0           3           0
           0           0           3           0           0           0
           1           3           8           9           7           0
           0           0           7           0           0           0
           1           0           0           0           1           0
           0           0
RBond                                      R   N=          44
  1.00000000E+00  1.00000000E+00  1.00000000E+00  1.00000000E+00  1.00000000E+00
  0.00000000E+00  0.00000000E+00  0.00000000E+00  1.00000000E+00  1.00000000E+00
  1.00000000E+00  1.00000000E+00  1.00000000E+00  0.00000000E+00  0.00000000E+00
  0.00000000E+00  1.00000000E+00  0.00000000E+00  0.00000000E+00  0.00000000E+00
  1.00000000E+00  0.00000000E+00  0.00000000E+00  0.00000000E+00  1.00000000E+00
  1.00000000E+00  1.00000000E+00  1.00000000E+00  1.00000000E+00  0.00000000E+00
  0.00000000E+00  0.00000000E+00  1.00000000E+00  0.00000000E+00  0.00000000E+00
  0.00000000E+00  1.00000000E+00  0.00000000E+00  0.00000000E+00  0.00000000E+00
  1.00000000E+00  0.00000000E+00  0.00000000E+00  0.00000000E+00
Virial Ratio                               R      2.010697312910024E+00
SCF Energy                                 R     -1.191442365426797E+02
Total Energy                               R     -1.191442365426797E+02
RMS Density                                R      4.014864296596700E-09
Job Status                                 I                1
Nuclear derivative order                   I                0
External E-field                           R   N=          35
  0.00000000E+00  0.00000000E+00  0.00000000E+00  0.00000000E+00  0.00000000E+00
  0.00000000E+00  0.00000000E+00  0.00000000E+00  0.00000000E+00  0.00000000E+00
  0.00000000E+00  0.00000000E+00  0.00000000E+00  0.00000000E+00  0.00000000E+00
  0.00000000E+00  0.00000000E+00  0.00000000E+00  0.00000000E+00  0.00000000E+00
  0.00000000E+00  0.00000000E+00  0.00000000E+00  0.00000000E+00  0.00000000E+00
  0.00000000E+00  0.00000000E+00  0.00000000E+00  0.00000000E+00  0.00000000E+00
  0.00000000E+00  0.00000000E+00  0.00000000E+00  0.00000000E+00  0.00000000E+00
IOpCl                                      I                0
IROHF                                      I                0
Alpha Orbital Energies                     R   N=          61
 -1.01783217E+01 -1.01701342E+01 -1.01701231E+01 -7.74070054E-01 -6.75308176E-01
 -5.80072917E-01 -4.51763405E-01 -4.31120560E-01 -3.93067935E-01 -3.76492343E-01
 -3.32911712E-01 -3.32555451E-01 -3.24654158E-01  9.59320673E-02  1.47686391E-01
  1.49883959E-01  1.50044215E-01  1.70253998E-01  1.93718640E-01  1.94573244E-01
  1.96932819E-01  2.27907998E-01  2.66197775E-01  5.12505839E-01  5.18584903E-01
  5.48486713E-01  5.59827576E-01  5.83779491E-01  6.67730957E-01  7.01920192E-01
  7.39069196E-01  7.89787670E-01  8.73340848E-01  8.84702561E-01  8.90658719E-01
  9.13238596E-01  9.21020064E-01  9.57744884E-01  9.68592274E-01  9.82168376E-01
  1.03517058E+00  1.38822109E+00  1.46453319E+00  1.48040843E+00  1.56357897E+00
  1.74338540E+00  1.90460503E+00  1.92415533E+00  1.97158387E+00  2.03912118E+00
  2.09394024E+00  2.23299806E+00  2.25493884E+00  2.32773827E+00  2.38450961E+00
  2.41561346E+00  2.56981379E+00  2.67367478E+00  4.13719204E+00  4.27812176E+00
  4.45967665E+00
Alpha MO coefficients                      R   N=        3721
  1.27483419E-02  3.70201000E-04 -4.71365956E-05  1.06026914E-07 -9.60595893E-05
  4.68231542E-03  5.03037788E-06 -8.12607357E-07  2.22637087E-03 -2.40723379E-04
 -2.05553560E-04 -5.47067471E-04  3.46909627E-08 -3.45856669E-05 -1.50286632E-08
 -1.80077176E-04  5.49211814E-05  1.27406490E-02  3.69914516E-04 -1.06643434E-04
  2.15313901E-08 -6.54039155E-06  4.68109171E-03  2.05563228E-03 -3.24947433E-07
 -8.53494850E-04 -5.22729876E-04 -2.05515402E-04 -2.64901679E-04 -1.04830060E-08
  1.01487466E-04  2.41878614E-08 -1.80108832E-04  5.55032997E-05 -1.80142167E-04
  5.52435905E-05 -1.60222982E-04 -1.25397083E-04  9.92882034E-01  4.99518589E-02
 -4.49972243E-05 -1.04996929E-07 -3.01869842E-05 -1.93745116E-02  9.73401863E-04
  1.03266666E-06  6.49126903E-04 -8.93871296E-03 -8.80208784E-03 -8.96483400E-03
  1.70383644E-08  3.64041088E-05 -1.14100678E-08  5.00775956E-05  2.82546086E-03
  5.02550268E-05  2.82635811E-03 -1.60194283E-04 -1.25267384E-04 -1.80116855E-04
  5.59747662E-05 -5.60393121E-01 -2.83796186E-02  1.28303703E-04 -2.38492139E-07
 -6.66980654E-05  1.02074693E-02 -6.01659892E-04  1.46153154E-06  7.18468614E-04
  5.08052256E-03  5.03294117E-03  5.16048764E-03  9.14142393E-08 -5.60837233E-06
 -1.60849240E-08 -3.21638708E-05 -1.81881350E-03  8.19724021E-01  4.13451209E-02
 -4.44245390E-06  6.41697265E-08 -1.15687821E-04 -1.44032838E-02 -6.06097617E-04
 -1.65320311E-07  8.08315739E-04 -7.56036589E-03 -7.43948955E-03 -7.48331233E-03
  2.77671872E-09  4.57211735E-05 -5.98790597E-09  5.24288784E-06  2.46707660E-03
  5.15659319E-06  2.46733537E-03 -5.60519173E-05  1.88929296E-03 -3.38363705E-03
 -2.17024493E-04  1.02070342E-04  2.75338837E-08 -1.03991911E-04  1.05145598E-03
 -1.65510284E-03 -4.60234243E-07  2.03057109E-03 -1.86947270E-04  7.45141264E-06
  1.02658999E-04 -1.98349000E-08  8.69662555E-05  5.15049954E-08 -3.89061501E-05
  3.49388925E-06 -3.89596981E-05  3.13093468E-06  3.34018907E-05 -1.10807212E-03
 -3.20429097E-05 -1.81999355E-03  8.19568117E-01  4.10437708E-02  3.04875969E-05
 -3.74254714E-08 -5.91893328E-05 -1.34762084E-02 -1.33237850E-04  4.32966668E-07
 -5.55817966E-04 -7.52685913E-03 -7.57425896E-03 -7.62517221E-03  1.69309052E-08
 -1.31229911E-05  2.88426672E-08 -6.79106908E-05  2.12605870E-03  5.60165268E-01
  2.79383323E-02 -4.44049418E-05  2.22259175E-08  9.98271884E-05 -8.84972922E-03
 -3.69053204E-04  6.96744059E-08 -2.17201478E-04 -5.23067567E-03 -5.22987605E-03
 -5.16899196E-03  2.67477553E-08  1.57514025E-05 -3.92710129E-08 -7.50002619E-05
  1.32043024E-03 -7.48608603E-05  1.31984113E-03 -5.17765589E-05  1.79618954E-03
 -1.80317957E-02 -1.15637217E-03  1.06276257E-04  8.67165767E-08  1.03250260E-04
  5.59795664E-03 -8.45226318E-04 -6.35156254E-07 -1.15206140E-03 -1.67698718E-04
  4.01146251E-05 -2.80263644E-04 -1.70609579E-09  6.39023479E-05  5.24728750E-09
 -2.06950675E-04  1.81473870E-05 -2.07063192E-04  1.76301152E-05 -6.85464393E-05
  2.35939651E-03 -6.78299061E-05  2.12555642E-03 -1.09688343E-01  2.07184062E-01
 -6.29359487E-03  1.49833543E-06  5.58614679E-02  1.70076668E-01 -1.49122137E-03
 -2.23378040E-06  8.84876279E-03 -1.65862322E-03 -1.77780774E-03  5.65169401E-03
  7.42018693E-07 -6.59894228E-04  1.28248114E-07  6.04673593E-02  1.24356340E-02
 -1.09645745E-01  2.07103045E-01  4.90856613E-02  3.07313428E-06 -2.73338598E-02
  1.70011588E-01  7.58727011E-03 -1.83230509E-06 -4.79040821E-03  4.15842633E-03
 -1.77625546E-03 -1.63531295E-04  2.15356278E-07 -3.46591599E-03 -3.11513315E-07
  6.04486371E-02  1.24315365E-02  6.04440758E-02  1.24331506E-02  5.72056153E-02
  1.04224666E-02 -1.46344586E-01  2.78630015E-01 -3.27694837E-02 -9.32410180E-06
 -2.18748532E-02  2.22508017E-01 -2.74320266E-03  2.63716651E-06 -1.83306341E-03
  2.31691552E-04 -2.47497344E-03  9.87302855E-04  9.19208410E-08 -1.03844609E-03
  7.28093229E-09  7.94807345E-02  1.41939094E-02  7.94924708E-02  1.41979410E-02
  5.72226707E-02  1.04239466E-02  6.04621389E-02  1.24342413E-02  1.41412050E-01
 -2.73890490E-01 -1.46569660E-02 -6.78185058E-06  2.36418333E-02 -2.58504704E-01
 -4.72105671E-03  2.07598724E-06  1.41869322E-02 -1.87167111E-03 -1.51519423E-03
  5.08112628E-03  1.59677775E-06 -9.10319647E-04 -6.90047146E-07 -9.66652129E-02
 -2.62785786E-02 -1.41464253E-01  2.73993783E-01 -1.61935193E-02  8.18894717E-06
  2.26464210E-02  2.58596128E-01 -1.12777330E-02  1.22114688E-06  9.82632055E-03
 -3.48797534E-03  1.51728975E-03  2.79057786E-04  6.27834737E-07  3.49806218E-03
 -1.36611583E-06  9.67255401E-02  2.63059599E-02  9.67162790E-02  2.62994029E-02
  1.05622342E-01  3.08686498E-02  2.88714495E-06 -8.15877791E-06 -8.02747039E-02
  7.78994941E-07  1.20539103E-01  1.90386821E-06 -2.20350413E-02 -1.32784943E-06
  3.30806445E-02  1.09758696E-02 -2.01637383E-07 -1.09735002E-02 -2.05921654E-07
 -5.29532819E-03  1.37089341E-08 -4.37328736E-06  1.51908149E-07 -3.94789968E-06
 -8.84836489E-07 -1.05578941E-01 -3.08544709E-02 -9.66842049E-02 -2.62955486E-02
  8.06836343E-02 -1.60436865E-01  3.22481515E-02 -3.24620132E-06  1.37627065E-01
 -1.69685527E-01  1.40640097E-02 -1.25236519E-05  4.61883483E-02 -5.17613908E-03
 -6.07595015E-03  1.39259608E-02 -4.65688491E-06  1.60346581E-03 -1.12992508E-06
 -9.35956988E-02 -4.23067095E-02  8.06483358E-02 -1.60369409E-01  1.39378303E-01
 -8.62636113E-06 -2.32955826E-02 -1.69601365E-01  4.80283119E-02 -6.66323004E-06
 -4.82652297E-03  1.20704366E-02 -6.07427299E-03 -3.32256050E-03 -1.91673834E-06
 -6.71884628E-03 -2.65283417E-07 -9.35366853E-02 -4.22664445E-02 -9.35475518E-02
 -4.22795158E-02 -7.28703670E-02 -3.24658735E-02 -1.29759587E-01  2.62224678E-01
  1.12206856E-01 -2.50209041E-05  7.47368786E-02  2.65885570E-01  4.29434679E-02
 -5.83138402E-09  2.86008355E-02 -6.69672446E-03  8.90326760E-03 -1.15282185E-02
  8.24628538E-07  6.66483090E-03  5.65040131E-08  1.38090606E-01  5.81664447E-02
  1.38099096E-01  5.81730128E-02 -7.29074519E-02 -3.24825165E-02 -9.35536377E-02
 -4.22672309E-02 -8.03389437E-07  2.76649412E-06  4.45688016E-05  2.29944829E-01
 -2.00449263E-06 -4.56816736E-06  1.50712546E-05  1.00093914E-01 -5.47386252E-06
 -3.03058140E-05  3.23793357E-05 -1.27984162E-06 -9.47624780E-03 -7.73132194E-07
  9.12451830E-05 -1.08118749E-01 -8.24025796E-02 -1.32627438E-06  7.10976724E-06
  9.69445096E-06  2.29889038E-01  3.07520264E-05 -1.34908950E-05  1.79023798E-07
  1.00063966E-01  2.50888564E-05 -2.61417893E-06  9.43651305E-06 -4.68598303E-06
 -3.57096897E-03 -2.54315530E-06 -8.77619537E-03  1.08186095E-01  8.24547234E-02
 -1.08150879E-01 -8.24278577E-02 -1.71456890E-05 -1.66494106E-05 -2.03780408E-06
 -3.97976291E-07  3.05910612E-05  3.09008049E-01  1.58790593E-05  2.55624437E-05
  3.21193048E-06  1.34242526E-01  2.12564456E-06  1.26595417E-06 -3.23823096E-06
  1.34346619E-06  7.91902916E-03  2.09947513E-08  5.26728685E-03  1.41485971E-01
  1.03456493E-01 -1.41488017E-01 -1.03446455E-01 -1.33431206E-04 -9.64278675E-05
  1.08262530E-01  8.25052513E-02 -9.13856067E-03  1.71284190E-02  2.51941752E-01
 -2.16064606E-05 -1.47377730E-01  2.81972479E-02  1.15902914E-01 -1.25883697E-05
 -6.36097220E-02  1.23731374E-02 -4.32797479E-03 -5.94562400E-03 -4.01459831E-05
 -2.71900778E-03 -7.46545248E-07 -3.12465103E-02 -2.72182714E-02 -9.13956389E-03
  1.71307977E-02 -3.88141578E-02 -4.33701827E-05  2.89244948E-01  2.82002469E-02
 -1.39934125E-02 -1.77398148E-05  1.31447320E-01 -4.89884419E-03 -4.32909883E-03
  1.13241457E-02 -3.07617052E-06  5.61383066E-03 -7.09988981E-06 -3.10789232E-02
 -2.70835263E-02 -3.11104910E-02 -2.71177595E-02  1.80618150E-01  1.36499163E-01
  2.38452182E-02 -5.28330759E-02  2.01363411E-01 -5.05578017E-05  1.34100651E-01
 -5.65321612E-02  8.34056763E-02 -1.69904461E-05  5.55341683E-02 -2.04595419E-03
  7.99366164E-03  2.06210894E-03 -2.05948405E-06 -5.68285606E-03 -1.01724397E-06
  6.25372122E-02  5.49824501E-02  6.25623510E-02  5.50152623E-02  1.80640726E-01
  1.36520081E-01 -3.09406553E-02 -2.69764965E-02 -3.07023476E-03  2.20262496E-03
 -2.61752664E-01  1.00172403E-04 -1.74397996E-01  2.94791626E-02 -1.17196613E-01
  4.01703784E-05 -7.91256386E-02 -6.17409787E-03  1.47552021E-02 -5.34263017E-03
  4.11345394E-05  7.50149404E-03 -2.33514400E-06  1.19685929E-01  9.39704059E-02
  3.07292467E-03 -2.20772319E-03  2.61875274E-01 -1.05304144E-04  1.74295366E-01
 -2.94770465E-02  1.18215308E-01 -5.21834825E-05  7.76287681E-02  8.42300864E-04
 -1.47565659E-02  1.06785061E-02  2.37149175E-07 -4.93181661E-03 -5.93961128E-06
 -1.19587935E-01 -9.38951569E-02 -1.19572245E-01 -9.38795797E-02  1.14290692E-01
  1.03008817E-01 -5.51705657E-06  1.08935550E-05 -1.32353369E-01  1.33368059E-05
  1.98716806E-01  1.90903653E-05 -6.58604862E-02  4.31642388E-06  9.88807947E-02
  1.56328017E-04  4.18842745E-07 -1.55707868E-04  5.71643937E-06 -7.33715707E-05
 -4.16293768E-06  4.11808988E-06  1.28178226E-05 -1.13386945E-05 -1.10467644E-05
 -1.14261656E-01 -1.02981815E-01  1.19435139E-01  9.37752001E-02 -8.59765529E-07
  1.23737327E-06 -3.29689219E-05 -3.23378897E-01 -1.26921330E-04  6.09974750E-06
 -4.49654145E-05 -1.62594637E-01 -6.67630429E-05  5.32574067E-05 -4.84101496E-05
 -1.61705327E-06  1.40855739E-02  2.21281169E-07  1.25351756E-02  1.71062712E-01
  1.41405732E-01 -7.35938792E-07 -2.23248198E-06  1.47232561E-04  3.23511217E-01
  2.25619980E-06  2.74652985E-05  8.38741942E-05  1.62640809E-01 -7.04372835E-06
 -2.75707495E-06  8.48844511E-06 -1.05805537E-05 -1.70087750E-02 -7.23637551E-06
 -8.16593259E-03  1.71234123E-01  1.41575018E-01 -1.71254312E-01 -1.41596305E-01
 -5.79135557E-05 -4.96015936E-05  7.18991018E-07  5.31361074E-07 -7.99053209E-05
 -5.05221300E-05  1.21964522E-04 -1.15245594E-05 -5.93367280E-06 -1.47155975E-05
  4.74185856E-05  5.06673281E-06 -1.77003920E-06 -2.67190479E-06 -7.33657170E-03
 -2.07769727E-06  1.10105900E-02 -2.97673930E-05 -3.37792171E-05  2.60895452E-05
  1.68940496E-05  2.74010660E-04  2.54949602E-04 -1.71268950E-01 -1.41611245E-01
  2.19470203E-02 -4.69845082E-02  1.77105489E-01  1.53597755E-04 -2.81794129E-01
 -8.61869801E-02  7.92577957E-02  8.52882022E-05 -1.45196267E-01  1.57023478E-02
 -1.43870292E-03 -6.69193319E-03 -4.20700767E-05 -1.30466009E-02 -9.30939644E-06
 -1.31047422E-02 -4.97998286E-03 -2.03736620E-02  4.36485423E-02  1.70438131E-01
 -2.66075129E-05 -2.79329697E-01  7.97572264E-02  9.29225618E-02 -2.38804545E-05
 -1.33050570E-01  1.17457945E-02  2.57898426E-03 -2.13904268E-02  1.43397441E-06
  9.28392321E-04  7.24468225E-06  2.10380793E-02  1.40871798E-02  2.11087526E-02
  1.41310420E-02 -1.82167736E-01 -1.89819069E-01  5.05652249E-04 -1.41547701E-03
 -1.72658724E-01 -1.02097075E-04  2.84564301E-01 -9.80058608E-04 -7.07043573E-02
 -4.43998762E-05  1.18061265E-01  1.33307065E-02  7.28500141E-04 -1.37355681E-02
 -7.68914723E-06 -5.67576605E-03 -8.39690918E-06  5.50742967E-03  5.64723294E-03
  5.63613192E-03  5.78626181E-03  1.74490801E-01  1.83112617E-01 -1.26651353E-02
 -4.55490990E-03  1.82597819E-02 -3.86609523E-02 -1.88694991E-01 -4.17466743E-04
 -1.94074500E-01 -7.50584005E-02 -9.67517889E-02 -1.61605166E-04 -9.40282601E-02
 -2.96203853E-03  1.39528870E-02 -5.18554810E-03  6.44609538E-05  1.54026281E-02
  3.56789280E-05  1.00846237E-01  1.14638034E-01  1.99989421E-02 -4.23824780E-02
 -2.66653186E-01 -3.80279177E-04 -7.66135589E-02 -8.18890506E-02 -1.32110334E-01
 -1.49604327E-04 -4.22266928E-02  3.68353031E-03  1.37833238E-02 -1.10654201E-02
  4.50691869E-05  1.16964595E-02  1.80821232E-05  9.87047135E-02  1.13044520E-01
  9.92908810E-02  1.13697037E-01 -8.60004991E-02 -7.40384652E-02  1.24770249E-02
 -3.47963445E-02  2.91671774E-01  6.53818402E-04  1.77855068E-01 -2.46480136E-02
  1.36899857E-01  2.69078913E-04  8.43793984E-02  9.08732917E-04  1.77091786E-02
 -1.07998849E-02  5.40167540E-05  1.79427834E-02  3.53579091E-05  1.36072884E-01
  1.39621031E-01  1.35226766E-01  1.38726365E-01 -1.00661172E-01 -8.93854477E-02
  9.99906810E-02  1.13707555E-01 -3.12418103E-05  6.67679420E-05  4.62418396E-04
 -2.05913218E-01  3.20159401E-04  1.33042891E-04  2.81794856E-04 -8.67647028E-02
  1.65535756E-04  4.89345696E-05 -6.94757106E-05  1.00290642E-05  1.31779225E-02
 -3.68270861E-05  1.78262846E-02  1.32154056E-01  1.48651585E-01 -4.89228352E-05