GeCl3                                                                   
SP        RB3LYP                                                      6-31G(d)            
Number of atoms                            I                5
Info1-9                                    I   N=           9
          14          14           0           0           0         110
           1          18        -502
Full Title                                 C   N=           1
GeCl3       
Route                                      C   N=           2
# nosymm b3lyp/6-31G*   
Charge                                     I                0
Multiplicity                               I                1
Number of electrons                        I               84
Number of alpha electrons                  I               42
Number of beta electrons                   I               42
Number of basis functions                  I               89
Number of independent functions            I               89
Number of point charges in /Mol/           I                0
Number of translation vectors              I                0
Atomic numbers                             I   N=           5
           1          32          17          17          17
Nuclear charges                            R   N=           5
  1.00000000E+00  3.20000000E+01  1.70000000E+01  1.70000000E+01  1.70000000E+01
Current cartesian coordinates              R   N=          15
  0.00000000E+00  0.00000000E+00  0.00000000E+00  0.00000000E+00  0.00000000E+00
  2.88355199E+00  1.90593997E+00  3.28407944E+00  4.29772854E+00  1.89256071E+00
 -3.29178953E+00  4.29772854E+00 -3.79732906E+00  7.71008259E-03  4.29665139E+00
Number of symbols in /Mol/                 I                0
Force Field                                I                0
Atom Types                                 C   N=           5
                                                            
Int Atom Types                             I   N=           5
           0           0           0           0           0
MM charges                                 R   N=           5
  0.00000000E+00  0.00000000E+00  0.00000000E+00  0.00000000E+00  0.00000000E+00
Integer atomic weights                     I   N=           5
           1          74          35          35          35
Real atomic weights                        R   N=           5
  1.00782504E+00  7.39211788E+01  3.49688527E+01  3.49688527E+01  3.49688527E+01
Atom fragment info                         I   N=           5
           0           0           0           0           0
Atom residue num                           I   N=           5
           0           0           0           0           0
Nuclear spins                              I   N=           5
           1           0           3           3           3
Nuclear ZEff                               R   N=           5
 -1.00000000E+00 -2.52800000E+01 -1.42400000E+01 -1.42400000E+01 -1.42400000E+01
Nuclear ZNuc                               R   N=           5
  1.00000000E+00  3.20000000E+01  1.70000000E+01  1.70000000E+01  1.70000000E+01
Nuclear QMom                               R   N=           5
  0.00000000E+00  0.00000000E+00 -8.16500000E+00 -8.16500000E+00 -8.16500000E+00
Nuclear GFac                               R   N=           5
  2.79284600E+00  0.00000000E+00  8.21874000E-01  8.21874000E-01  8.21874000E-01
MicOpt                                     I   N=           5
          -1          -1          -1          -1          -1
Number of residues                         I                0
Number of secondary structures             I                0
Number of contracted shells                I               29
Number of primitive shells                 I               86
Pure/Cartesian d shells                    I                1
Pure/Cartesian f shells                    I                0
Highest angular momentum                   I                2
Largest degree of contraction              I                8
Shell types                                I   N=          29
           0           0           0           0           0           0
           0           0           1           1           1           1
           2           2           0          -1          -1          -1
           2           0          -1          -1          -1           2
           0          -1          -1          -1           2
Number of primitives per shell             I   N=          29
           3           1           8           2           1           1
           1           1           6           3           1           1
           5           1           6           6           3           1
           1           6           6           3           1           1
           6           6           3           1           1
Shell to atom map                          I   N=          29
           1           1           2           2           2           2
           2           2           2           2           2           2
           2           2           3           3           3           3
           3           4           4           4           4           4
           5           5           5           5           5
Primitive exponents                        R   N=          86
  1.87311370E+01  2.82539436E+00  6.40121692E-01  1.61277759E-01  4.89000000E+05
  7.31000000E+04  1.66400000E+04  4.74200000E+03  1.56900000E+03  5.77000000E+02
  2.29000000E+02  9.48100000E+01  2.92200000E+01  1.24500000E+01  3.64200000E+00
  1.50200000E+00  2.46200000E-01  9.20900000E-02  3.59600000E+03  8.43700000E+02
  2.66200000E+02  9.82800000E+01  3.99300000E+01  1.71400000E+01  7.15700000E+00
  3.06800000E+00  1.24600000E+00  2.79500000E-01  8.34000000E-02  7.01800000E+01
  2.00700000E+01  7.05900000E+00  2.55300000E+00  8.30100000E-01  2.02000000E-01
  2.51801000E+04  3.78035000E+03  8.60474000E+02  2.42145000E+02  7.73349000E+01
  2.62470000E+01  4.91765000E+02  1.16984000E+02  3.74153000E+01  1.37834000E+01
  5.45215000E+00  2.22588000E+00  3.18649000E+00  1.14427000E+00  4.20377000E-01
  1.42657000E-01  7.50000000E-01  2.51801000E+04  3.78035000E+03  8.60474000E+02
  2.42145000E+02  7.73349000E+01  2.62470000E+01  4.91765000E+02  1.16984000E+02
  3.74153000E+01  1.37834000E+01  5.45215000E+00  2.22588000E+00  3.18649000E+00
  1.14427000E+00  4.20377000E-01  1.42657000E-01  7.50000000E-01  2.51801000E+04
  3.78035000E+03  8.60474000E+02  2.42145000E+02  7.73349000E+01  2.62470000E+01
  4.91765000E+02  1.16984000E+02  3.74153000E+01  1.37834000E+01  5.45215000E+00
  2.22588000E+00  3.18649000E+00  1.14427000E+00  4.20377000E-01  1.42657000E-01
  7.50000000E-01
Contraction coefficients                   R   N=          86
  3.34946043E-02  2.34726953E-01  8.13757326E-01  1.00000000E+00  2.12702672E-04
  1.65563161E-03  8.57517530E-03  3.44013038E-02  1.08114277E-01  2.75440380E-01
  4.16293622E-01  2.93980004E-01  3.08124471E-01  7.19004410E-01  1.00000000E+00
  1.00000000E+00  1.00000000E+00  1.00000000E+00  1.48764785E-03  1.28358630E-02
  6.67419485E-02  2.25587043E-01  4.05801859E-01  4.48285450E-01  2.74588665E-01
  5.15597270E-01  3.17412304E-01  1.00000000E+00  1.00000000E+00  2.88992213E-02
  1.55947310E-01  3.69793512E-01  4.67872065E-01  2.87766733E-01  1.00000000E+00
  1.83295985E-03  1.40341988E-02  6.90973943E-02  2.37451980E-01  4.83033960E-01
  3.39855972E-01 -2.29739142E-03 -3.07137189E-02 -1.12528069E-01  4.50163278E-02
  5.89353363E-01  4.65206287E-01 -2.51828028E-01  6.15892514E-02  1.06018433E+00
  1.00000000E+00  1.00000000E+00  1.83295985E-03  1.40341988E-02  6.90973943E-02
  2.37451980E-01  4.83033960E-01  3.39855972E-01 -2.29739142E-03 -3.07137189E-02
 -1.12528069E-01  4.50163278E-02  5.89353363E-01  4.65206287E-01 -2.51828028E-01
  6.15892514E-02  1.06018433E+00  1.00000000E+00  1.00000000E+00  1.83295985E-03
  1.40341988E-02  6.90973943E-02  2.37451980E-01  4.83033960E-01  3.39855972E-01
 -2.29739142E-03 -3.07137189E-02 -1.12528069E-01  4.50163278E-02  5.89353363E-01
  4.65206287E-01 -2.51828028E-01  6.15892514E-02  1.06018433E+00  1.00000000E+00
  1.00000000E+00
P(S=P) Contraction coefficients            R   N=          86
  0.00000000E+00  0.00000000E+00  0.00000000E+00  0.00000000E+00  0.00000000E+00
  0.00000000E+00  0.00000000E+00  0.00000000E+00  0.00000000E+00  0.00000000E+00
  0.00000000E+00  0.00000000E+00  0.00000000E+00  0.00000000E+00  0.00000000E+00
  0.00000000E+00  0.00000000E+00  0.00000000E+00  0.00000000E+00  0.00000000E+00
  0.00000000E+00  0.00000000E+00  0.00000000E+00  0.00000000E+00  0.00000000E+00
  0.00000000E+00  0.00000000E+00  0.00000000E+00  0.00000000E+00  0.00000000E+00
  0.00000000E+00  0.00000000E+00  0.00000000E+00  0.00000000E+00  0.00000000E+00
  0.00000000E+00  0.00000000E+00  0.00000000E+00  0.00000000E+00  0.00000000E+00
  0.00000000E+00  3.98940088E-03  3.03177067E-02  1.29880029E-01  3.27951072E-01
  4.53527100E-01  2.52154056E-01 -1.42993147E-02  3.23572333E-01  7.43507765E-01
  1.00000000E+00  0.00000000E+00  0.00000000E+00  0.00000000E+00  0.00000000E+00
  0.00000000E+00  0.00000000E+00  0.00000000E+00  3.98940088E-03  3.03177067E-02
  1.29880029E-01  3.27951072E-01  4.53527100E-01  2.52154056E-01 -1.42993147E-02
  3.23572333E-01  7.43507765E-01  1.00000000E+00  0.00000000E+00  0.00000000E+00
  0.00000000E+00  0.00000000E+00  0.00000000E+00  0.00000000E+00  0.00000000E+00
  3.98940088E-03  3.03177067E-02  1.29880029E-01  3.27951072E-01  4.53527100E-01
  2.52154056E-01 -1.42993147E-02  3.23572333E-01  7.43507765E-01  1.00000000E+00
  0.00000000E+00
Coordinates of each shell                  R   N=          87
  0.00000000E+00  0.00000000E+00  0.00000000E+00  0.00000000E+00  0.00000000E+00
  0.00000000E+00  0.00000000E+00  0.00000000E+00  2.88355199E+00  0.00000000E+00
  0.00000000E+00  2.88355199E+00  0.00000000E+00  0.00000000E+00  2.88355199E+00
  0.00000000E+00  0.00000000E+00  2.88355199E+00  0.00000000E+00  0.00000000E+00
  2.88355199E+00  0.00000000E+00  0.00000000E+00  2.88355199E+00  0.00000000E+00
  0.00000000E+00  2.88355199E+00  0.00000000E+00  0.00000000E+00  2.88355199E+00
  0.00000000E+00  0.00000000E+00  2.88355199E+00  0.00000000E+00  0.00000000E+00
  2.88355199E+00  0.00000000E+00  0.00000000E+00  2.88355199E+00  0.00000000E+00
  0.00000000E+00  2.88355199E+00  1.90593997E+00  3.28407944E+00  4.29772854E+00
  1.90593997E+00  3.28407944E+00  4.29772854E+00  1.90593997E+00  3.28407944E+00
  4.29772854E+00  1.90593997E+00  3.28407944E+00  4.29772854E+00  1.90593997E+00
  3.28407944E+00  4.29772854E+00  1.89256071E+00 -3.29178953E+00  4.29772854E+00
  1.89256071E+00 -3.29178953E+00  4.29772854E+00  1.89256071E+00 -3.29178953E+00
  4.29772854E+00  1.89256071E+00 -3.29178953E+00  4.29772854E+00  1.89256071E+00
 -3.29178953E+00  4.29772854E+00 -3.79732906E+00  7.71008259E-03  4.29665139E+00
 -3.79732906E+00  7.71008259E-03  4.29665139E+00 -3.79732906E+00  7.71008259E-03
  4.29665139E+00 -3.79732906E+00  7.71008259E-03  4.29665139E+00 -3.79732906E+00
  7.71008259E-03  4.29665139E+00
Num ILSW                                   I              100
ILSW                                       I   N=         100
           0           1           0           0           2           0
           0           0           0           0         402          -1
           5           0           0           0           0           0
           0           0           1           0           0           0
           1           1           0           0           0           0
           0           0      100000           0          -1           0
           0           0           0           0           0           0
           0           0           0           1           0           0
           0 -2000000000           1           0           0           0
           0           0           4          52           0           0
           0           0           5           0           0           0
           0           0           0           0           0           1
           0           0           0           0           0           0
           0           0           0           0           0           0
           0           0           0           0           0           0
           0           0           0           0           0           0
           0           0           0           0
Num RLSW                                   I               52
RLSW                                       R   N=          52
  8.00000000E-01  7.20000000E-01  1.00000000E+00  8.10000000E-01  2.00000000E-01
  0.00000000E+00  0.00000000E+00  1.00000000E+00  0.00000000E+00  0.00000000E+00
  0.00000000E+00  0.00000000E+00  1.00000000E+00  0.00000000E+00  0.00000000E+00
  0.00000000E+00  0.00000000E+00  1.00000000E+00  0.00000000E+00  0.00000000E+00
  0.00000000E+00  0.00000000E+00  1.00000000E+00  0.00000000E+00  0.00000000E+00
  0.00000000E+00  0.00000000E+00  1.00000000E+00  0.00000000E+00  0.00000000E+00
  0.00000000E+00  0.00000000E+00  1.00000000E+00  0.00000000E+00  0.00000000E+00
  0.00000000E+00  0.00000000E+00  0.00000000E+00  1.00000000E+00  1.00000000E+00
  0.00000000E+00  1.00000000E+00  0.00000000E+00  0.00000000E+00  0.00000000E+00
  0.00000000E+00  0.00000000E+00  0.00000000E+00  0.00000000E+00  0.00000000E+00
  0.00000000E+00  0.00000000E+00
MxBond                                     I                4
NBond                                      I   N=           5
           1           4           1           1           1
IBond                                      I   N=          20
           2           0           0           0           1           3
           4           5           2           0           0           0
           2           0           0           0           2           0
           0           0
RBond                                      R   N=          20
  1.00000000E+00  0.00000000E+00  0.00000000E+00  0.00000000E+00  1.00000000E+00
  1.00000000E+00  1.00000000E+00  1.00000000E+00  1.00000000E+00  0.00000000E+00
  0.00000000E+00  0.00000000E+00  1.00000000E+00  0.00000000E+00  0.00000000E+00
  0.00000000E+00  1.00000000E+00  0.00000000E+00  0.00000000E+00  0.00000000E+00
Virial Ratio                               R      2.003439723732619E+00
SCF Energy                                 R     -3.456295980028398E+03
Total Energy                               R     -3.456295980028398E+03
RMS Density                                R      2.577940498015640E-09
Job Status                                 I                1
Nuclear derivative order                   I                0
External E-field                           R   N=          35
  0.00000000E+00  0.00000000E+00  0.00000000E+00  0.00000000E+00  0.00000000E+00
  0.00000000E+00  0.00000000E+00  0.00000000E+00  0.00000000E+00  0.00000000E+00
  0.00000000E+00  0.00000000E+00  0.00000000E+00  0.00000000E+00  0.00000000E+00
  0.00000000E+00  0.00000000E+00  0.00000000E+00  0.00000000E+00  0.00000000E+00
  0.00000000E+00  0.00000000E+00  0.00000000E+00  0.00000000E+00  0.00000000E+00
  0.00000000E+00  0.00000000E+00  0.00000000E+00  0.00000000E+00  0.00000000E+00
  0.00000000E+00  0.00000000E+00  0.00000000E+00  0.00000000E+00  0.00000000E+00
IOpCl                                      I                0
IROHF                                      I                0
Alpha Orbital Energies                     R   N=          89
 -3.98778827E+02 -1.01562792E+02 -1.01562767E+02 -1.01562766E+02 -4.93010720E+01
 -4.44090886E+01 -4.44090882E+01 -4.44077551E+01 -9.48094377E+00 -9.48091733E+00
 -9.48090824E+00 -7.24307419E+00 -7.24305270E+00 -7.24303467E+00 -7.23573407E+00
 -7.23570900E+00 -7.23570304E+00 -7.23565431E+00 -7.23563027E+00 -7.23562402E+00
 -6.22203532E+00 -4.49116460E+00 -4.49116347E+00 -4.48762177E+00 -1.31786793E+00
 -1.31786737E+00 -1.31435993E+00 -1.31315774E+00 -1.31315664E+00 -8.68161061E-01
 -8.33141356E-01 -8.33109188E-01 -5.76267814E-01 -4.34060421E-01 -4.26583958E-01
 -4.26552063E-01 -3.56639938E-01 -3.56628304E-01 -3.40916179E-01 -3.40891261E-01
 -3.40748256E-01 -3.31797218E-01 -7.08237201E-02 -9.64158104E-03 -9.56864408E-03
  6.24675655E-02  1.20852489E-01  2.20395755E-01  2.20412293E-01  2.34211627E-01
  2.67437363E-01  2.67440742E-01  3.11383686E-01  3.11394800E-01  3.51335276E-01
  4.16674707E-01  4.18216940E-01  4.18252803E-01  4.80449616E-01  4.80522478E-01
  5.15763911E-01  5.44179056E-01  5.44201887E-01  5.75815088E-01  6.30732568E-01
  6.30780502E-01  6.61616581E-01  8.11333999E-01  8.31968964E-01  8.47611044E-01
  8.47621214E-01  8.50569630E-01  8.57205158E-01  8.57233380E-01  8.65452199E-01
  8.88563190E-01  8.88623192E-01  9.77069747E-01  1.03788024E+00  1.03794655E+00
  1.06385833E+00  1.17128539E+00  1.19321689E+00  1.19323611E+00  4.22622974E+00
  4.22627851E+00  4.27972028E+00  5.51849632E+00  3.59563760E+01
Alpha MO coefficients                      R   N=        7921
  7.67334205E-06 -2.60279534E-04  9.96760006E-01  2.27810667E-02 -2.94893236E-02
 -4.91805887E-02 -2.70467295E-02 -1.92357784E-02  4.02042304E-10  2.14505484E-10
  8.92269649E-06 -5.09491718E-09 -7.11390113E-10 -1.98824511E-05  2.38989532E-08
  1.76351072E-09  1.11635865E-04 -2.97211101E-07  8.80230897E-10 -5.04396019E-04
  3.99773967E-02  3.99774193E-02  3.99804521E-02 -1.67274103E-10  2.61966988E-09
 -1.36548531E-10  1.15744666E-02  1.15742899E-02  1.16303726E-02  2.19017010E-09
 -5.45259893E-08  2.13068121E-09 -1.07264093E-05 -7.97026464E-05  1.35875917E-05
  2.34178547E-05  1.59721142E-05 -5.64383168E-04  4.69510821E-05  8.08729743E-05
  2.37186730E-06  7.89541863E-04  9.07395482E-05  1.56371803E-04  1.91680658E-04
 -4.18083475E-05  1.20707723E-04 -8.73399818E-05  1.64230042E-04  6.40166145E-05
  1.10305075E-04 -1.07266258E-05 -7.97031902E-05  1.34933671E-05 -2.34748108E-05
  1.59729502E-05 -5.64398213E-04  4.66158458E-05 -8.10532039E-05  2.36779235E-06
  7.89543134E-04  9.01061719E-05 -1.56744118E-04  1.91683396E-04 -4.29577900E-05
  1.21874019E-04 -8.73363855E-05 -1.63468690E-04  6.35707968E-05 -1.10570491E-04
 -1.07275204E-05 -7.96930245E-05 -2.70900311E-05  5.50337198E-08  1.59751463E-05
 -5.64465652E-04 -9.34507911E-05  1.89582460E-07  2.29062145E-06  7.89107219E-04
 -1.81036456E-04  3.68150771E-07  1.91796530E-04  2.03447172E-04 -1.24313834E-04
 -8.73569556E-05 -7.68329745E-07 -1.27479303E-04  2.58707246E-07  2.14497675E-06
  3.50420871E-05  1.00136847E-05  3.93986498E-05 -1.09209879E-04 -2.80493574E-04
  3.68226389E-05 -5.51830124E-04 -1.67448562E-06  2.88747164E-09  9.77299692E-07
  9.14952441E-06 -1.57814493E-08 -4.85688145E-06 -6.83595644E-05  1.17913010E-07
  3.53621265E-05  1.07950660E-04 -1.86830535E-07 -3.65023315E-05  2.13095251E-04
  1.84798021E-04  1.88437644E-04 -7.13167818E-08 -1.20438502E-05  2.08077648E-08
  1.67596641E-04  1.12410080E-04  1.09756967E-04 -1.39143864E-07 -2.46885138E-05
  4.23573346E-08  1.60294179E-02  2.46044292E-04  1.90170248E-07 -3.95661416E-07
 -3.44961072E-07 -3.45357406E-04 -4.74842058E-06 -1.08050698E-06  1.13726456E-06
  4.29980585E-05  3.90581856E-06  1.83690592E-06 -6.49702199E-08  1.23501527E-04
  1.28758231E-04  1.30840099E-04 -2.62584933E-06  1.98065354E-06 -2.04528248E-06
  1.63735805E-02  2.51282450E-04  1.84026828E-07  4.08545487E-07 -3.50857536E-07
 -3.52627195E-04 -4.73403750E-06  1.08013829E-06  1.14452496E-06  4.35943539E-05
  3.88472032E-06 -1.82647985E-06 -7.55870119E-08  1.26122315E-04  1.31341615E-04
  1.33443022E-04  2.65410433E-06  1.98864837E-06  2.03969244E-06  9.95733451E-01
  1.51569116E-02  4.47175945E-05 -9.06201183E-08 -1.71143887E-05 -2.10406078E-02
 -5.85452762E-05  1.17599441E-07  2.17905850E-05  1.74317533E-03  8.21275846E-05
 -1.65789656E-07 -3.03545582E-05  7.52520787E-03  7.54196235E-03  7.53977788E-03
  4.06934759E-08  7.39164220E-06 -1.40499670E-08  2.76768447E-06  4.51531580E-05
  1.28881983E-05  5.07018849E-05 -1.40536390E-04 -3.61013446E-04  4.73885647E-05
 -7.10174904E-04  1.18822807E-06 -6.18081850E-07  1.25980367E-06 -6.48970430E-06
  3.37667351E-06 -6.25964653E-06  4.84424342E-05 -2.52157390E-05  4.55435635E-05
 -7.64145747E-05  3.98234452E-05 -4.69170660E-05  2.45995043E-04  2.66082735E-04
  2.42526574E-04 -5.95792180E-06  8.53693474E-06 -4.44686745E-06  1.60603163E-04
  1.99803815E-04  1.41259150E-04 -1.16179488E-05  1.75364644E-05 -9.11043129E-06
  4.64832127E-01  7.07732232E-03 -1.05716042E-05 -1.75453495E-05 -8.05569133E-06
 -9.82776928E-03  1.47829027E-05  1.89230999E-05  1.08430286E-05  8.26090688E-04
 -1.91774951E-05 -2.84304324E-05 -1.38487257E-05  3.52581372E-03  3.51599305E-03
  3.52765764E-03 -2.56554278E-06 -4.18971818E-06 -2.19000598E-06  8.80601264E-01
  1.34052302E-02 -1.97727240E-05  3.40195954E-05 -1.51786218E-05 -1.86104766E-02
  2.64740255E-05 -4.24869500E-05  1.96125773E-05  1.54762037E-03 -3.62652855E-05
  6.05620046E-05 -2.67025488E-05  6.66981652E-03  6.65918896E-03  6.67187490E-03
  6.62406441E-06 -4.57356937E-06  5.22347960E-06 -2.19637689E-02 -3.31604987E-04
 -1.61672074E-06  1.57476793E-07  2.84130386E-07  4.55269810E-04  6.96448031E-06
 -1.52758024E-06  5.73410631E-07 -1.85755103E-05 -8.30503131E-06  1.06110431E-06
  1.21067585E-06 -1.60236434E-04 -1.59191315E-04 -1.53715461E-04  1.67437435E-06
  7.07139418E-07  1.16233406E-06  8.55655009E-07  1.39587244E-05  3.98414664E-06
  1.56731044E-05 -4.34426553E-05 -1.11600665E-04  1.46520999E-05 -2.19543250E-04
  3.71187369E-07  1.99252485E-06  3.89506255E-07 -2.02715256E-06 -1.08846604E-05
 -1.93528419E-06  1.51293493E-05  8.12697914E-05  1.40790522E-05 -2.38652178E-05
 -1.28350462E-04 -1.45044274E-05  7.61245782E-05  8.21729999E-05  7.49717422E-05
  1.94510746E-05  2.66611215E-06  1.43316562E-05  4.98049423E-05  6.16095957E-05
  4.36680383E-05  3.79330159E-05  5.47716498E-06  2.93633900E-05  8.80729423E-01
  1.34053239E-02 -1.98236640E-05 -3.44846240E-05 -1.51168869E-05 -1.86072030E-02
  2.55989080E-05  4.74306227E-05  1.88974445E-05  1.53442595E-03 -3.66548737E-05
 -6.54865173E-05 -2.70666744E-05  6.66323855E-03  6.65894142E-03  6.66427331E-03
 -8.07672310E-06 -2.01189941E-06 -6.02207298E-06 -4.65062882E-01 -7.07731619E-03
  1.03308451E-05 -1.86211333E-05  7.93881695E-06  9.82131191E-03 -1.26861580E-05
  2.85444971E-05 -9.48811179E-06 -8.01069178E-04  1.92971586E-05 -3.81181747E-05
  1.45389726E-05 -3.51338762E-03 -3.51530244E-03 -3.51316177E-03 -5.23026824E-06
 -7.16164860E-07 -3.73364526E-06 -6.53084652E-03 -9.85700448E-05 -4.89211275E-07
 -4.98220506E-07  8.34099165E-08  1.35269972E-04  2.14775940E-06  4.89473309E-06
  1.82676373E-07 -5.29123434E-06 -2.55143550E-06 -3.37389153E-06  3.66280862E-07
 -4.75996898E-05 -4.72310980E-05 -4.55609169E-05 -5.41017384E-06  2.11984841E-07
 -3.76751855E-06 -6.69179318E-05 -2.00035319E-03 -4.24012695E-01  1.13953096E+00
 -1.89467696E-01 -3.94874012E-01 -2.21145711E-01 -1.63843183E-01 -3.43112905E-07
  8.13421644E-09  1.00293364E-03 -8.22503090E-08 -5.11328622E-09 -7.35408932E-05
  2.16568316E-07  1.38197224E-08  9.60310226E-04 -2.57456285E-06  7.78470001E-09
 -4.27470089E-03  3.24476594E-01  3.24476810E-01  3.24484633E-01 -1.31437590E-09
  1.48282705E-08 -9.70784473E-10  9.73856225E-02  9.73840397E-02  9.78133995E-02
  1.75880006E-08 -4.57869265E-07  1.72699399E-08 -8.84165206E-05 -6.94854027E-04
  1.01625141E-04  1.75154241E-04  1.24767397E-04 -4.59032805E-03  4.55886519E-04
  7.85288547E-04  6.42356133E-05  6.86858781E-03  7.42594924E-04  1.27975604E-03
  1.60877450E-03 -4.55013686E-04  8.41507596E-04 -8.21515446E-04  1.31021095E-03
  5.07131551E-04  8.73819138E-04 -8.84183905E-05 -6.94858855E-04  1.00921496E-04
 -1.75582078E-04  1.24774420E-04 -4.59045627E-03  4.52639746E-04 -7.87052949E-04
  6.42021502E-05  6.86859962E-03  7.37412451E-04 -1.28280434E-03  1.60879750E-03
 -4.64182272E-04  8.50817919E-04 -8.21486005E-04 -1.30414103E-03  5.03601774E-04
 -8.75925084E-04 -8.84259338E-05 -6.94775003E-04 -2.02630671E-04  4.11689884E-07
  1.24801287E-04 -4.59101966E-03 -9.07529495E-04  1.84120465E-06  6.35169085E-05
  6.86485824E-03 -1.48167810E-03  3.01341417E-06  1.60980697E-03  1.50165985E-03
 -1.11323089E-03 -8.21642959E-04 -6.12969515E-06 -1.00988548E-03  2.04946448E-06
 -1.52456461E-09  1.77516946E-08  1.76272182E-09 -1.89193436E-08  2.86348913E-08
  5.34401133E-08  3.90588959E-08  8.47614247E-08 -2.23915713E-03  9.78460807E-01
  1.17230951E-06 -1.36221060E-04  5.95224815E-02  6.49486256E-08  4.19782129E-05
 -1.83296967E-02  7.24203623E-09 -4.53750101E-06  2.00683019E-03  7.08699240E-08
  1.78846395E-06 -1.87405926E-06 -4.18834904E-08  2.51944426E-04 -5.27926456E-07
  2.30182688E-04 -2.56169434E-05  2.56741599E-05 -6.57676973E-10 -3.52721827E-03
  5.87050917E-06 -2.55520442E-03 -2.50006253E-05 -2.67005726E-04  1.83525648E-04
  2.62257952E-04  1.40065323E-04 -2.09433285E-03 -6.30509759E-04 -9.14035744E-04
 -4.86425132E-04  5.22242312E-03 -1.96646633E-03 -3.79816652E-03 -1.43839701E-03
  1.03083579E-04  1.33218663E-03 -2.35292971E-04  1.49086530E-03  6.49243671E-04
  1.11045800E-03  2.51271396E-05  2.68340111E-04 -1.82910146E-04  2.64592545E-04
 -1.40770942E-04  2.10488308E-03  6.28465243E-04 -9.22071746E-04  4.88883439E-04
 -5.24874602E-03  1.96434384E-03 -3.82322502E-03  1.44561813E-03 -9.12593586E-05
 -1.35125729E-03  2.36446771E-04  1.49126501E-03 -6.47893173E-04  1.11871913E-03
 -1.25084028E-07 -1.33454922E-06 -1.70565679E-06 -5.36518433E-05  6.99904633E-07
 -1.04775532E-05  5.89254107E-06  1.71205053E-04 -2.43060917E-06  2.61242000E-05
  2.05344410E-05 -4.08170628E-04 -7.19882559E-06  1.15902456E-05 -4.40144854E-06
 -1.17689692E-06  2.44695108E-04 -6.44662857E-06 -7.87859804E-06  5.38136536E-07
 -6.81329269E-07 -2.13120359E-07  5.04330991E-07  5.08123346E-08  5.53695290E-08
  3.34839212E-07  2.94673385E-07  9.78460677E-01  2.23916087E-03 -1.06254231E-04
  5.95229107E-02  1.36208431E-04 -6.34219765E-06 -1.83314705E-02 -4.19190578E-05
  1.49843126E-06  2.00266066E-03  4.63798731E-06 -2.25149148E-06 -2.18317259E-04
  2.18117703E-04  3.42249789E-08  2.11122125E-06  2.30254398E-04  5.25761526E-07
  3.05545174E-03 -3.05386234E-03 -9.48792885E-07 -2.95441793E-05 -2.55601604E-03
 -5.82627400E-06 -1.45804372E-05 -1.55752638E-04  5.33280014E-05  1.84200898E-04
  8.16857411E-05 -1.22164963E-03 -1.96330583E-04 -6.32818601E-04 -2.83652171E-04
  3.04650046E-03 -1.55517516E-03 -1.97835676E-03 -8.38642243E-04 -1.52942422E-04
  9.90290218E-04 -1.37276783E-04  7.29058377E-04  3.70595806E-04  6.52281916E-04
 -1.43646401E-05 -1.53437377E-04  5.10003129E-05 -1.82141912E-04  8.04748214E-05
 -1.20354309E-03 -1.88339046E-04  6.25696928E-04 -2.79451368E-04  3.00135471E-03
 -1.53022303E-03  1.95173275E-03 -8.26203176E-04 -1.58847997E-04  9.83798760E-04
 -1.35222004E-04 -7.10810009E-04  3.62358329E-04 -6.44154695E-04  2.89563756E-05
  3.09099616E-04  3.69501309E-04 -9.81913577E-07 -1.62047000E-04  2.42557420E-03
 -1.28275654E-03  3.34382614E-06  5.62767816E-04 -6.04836136E-03 -4.94694645E-03
  8.27906425E-06  1.66476605E-03 -2.48341655E-03  8.19791931E-04  2.72936186E-04
  8.80104244E-06  1.48849210E-03 -3.05635390E-06 -3.50511442E-03  1.31997245E-03
  3.76635178E-04 -1.43331119E-03  1.19332400E-03  1.10790512E-03  2.00532172E-03
 -4.52320100E-03  1.06195156E-04 -9.25785954E-07  9.78535784E-01  6.55491407E-06
 -6.21592170E-08  5.92770210E-02 -2.33038685E-06  4.46366618E-08 -1.70716030E-02
 -1.41804313E-06  5.91874455E-08  5.45730783E-03 -1.29322225E-03 -1.29328081E-03
 -1.54543476E-03 -8.59362724E-10  9.47338188E-08 -1.96364600E-09 -2.94703649E-03
 -2.94634579E-03  1.31113494E-03  2.15995023E-08 -1.42535202E-06  3.28157732E-08
 -1.14676315E-05 -1.59424351E-04  7.78894895E-05  1.34256336E-04 -4.82897605E-07
 -9.66033086E-04 -2.66372012E-04 -4.59147710E-04  1.34668900E-05  3.05454849E-03
 -1.06557650E-03 -1.83653232E-03 -1.58325652E-03  4.79844362E-06  6.59911354E-04
 -3.61328885E-04  6.61673369E-04  2.13649000E-04  3.68248172E-04 -1.14683133E-05
 -1.59424790E-04  7.73457136E-05 -1.34577182E-04 -4.82290844E-07 -9.66070446E-04
 -2.64516480E-04  4.60253401E-04  1.34618685E-05  3.05466852E-03 -1.05813149E-03
  1.84089142E-03 -1.58328368E-03  1.61608313E-07  6.64587814E-04 -3.61327779E-04
 -6.58591500E-04  2.12152557E-04 -3.69119090E-04 -1.14599248E-05 -1.59236494E-04
 -1.55105812E-04  3.14812365E-07 -5.61075734E-07 -9.65250702E-04  5.30565259E-04
 -1.07625633E-06  1.36376581E-05  3.05209746E-03  2.12199025E-03 -4.31634098E-06
 -1.58181838E-03  9.91986460E-04 -3.27183640E-04 -3.61300606E-04 -3.09424318E-06
 -4.24721341E-04  8.62324639E-07  2.71149412E-04 -1.22329109E-03 -2.21145053E-05
 -1.62282036E-04  5.44310207E-04  3.02812210E-04 -6.18810240E-03  2.44647358E-02
  2.82256002E-05  1.17985592E-07 -2.06695768E-05 -9.42725723E-05 -3.94128641E-07
  6.89899903E-05  8.82596894E-05  3.65381511E-07 -1.56581067E-04 -2.68311374E-03
 -1.12436554E-05  4.09224519E-03 -6.15158427E-04 -5.73643296E-04 -5.19368440E-04
  2.46187362E-07  3.45338674E-05  1.45665930E-07 -2.78602853E-03 -3.01976875E-03
 -3.74684727E-03 -1.38022690E-06 -2.39169104E-04 -1.01026365E-06 -7.06005499E-02
  2.53768649E-01 -5.08575589E-04 -8.78003658E-04 -4.13435202E-04  1.90825208E-02
 -2.32008282E-04 -3.74415873E-04 -5.30785508E-05 -7.93703846E-03  1.46961678E-03
  1.95861291E-03  2.20866658E-04 -3.81826553E-03 -3.78184869E-03 -3.78654455E-03
 -1.71338032E-05  5.04121515E-06  6.48133486E-05 -7.19987244E-02  2.58790757E-01
 -5.15162773E-04  8.97748596E-04 -4.21342280E-04  1.94514639E-02 -2.33547716E-04
  3.80515671E-04 -5.55957129E-05 -8.02421101E-03  1.47148586E-03 -1.97756412E-03
  2.28206985E-04 -3.89785508E-03 -3.86092513E-03 -3.86614364E-03  1.69329866E-05
  4.75822755E-06 -6.52089580E-05 -2.66156583E-01  9.56186974E-01  3.86767084E-03
 -7.84099615E-06 -1.51745615E-03  7.06835418E-02  1.27996961E-03 -2.68717467E-06
 -4.04322121E-04 -2.01238926E-02 -4.69373380E-03  1.15992262E-05  1.24503554E-03
 -1.48342027E-02 -1.49572149E-02 -1.49193155E-02 -9.50997315E-08 -1.02636726E-04