GeMe3_new_1 0.0                                                         
SP        RB3LYP                                                      6-31G(d)            
Number of atoms                            I               17
Info1-9                                    I   N=           9
          26          26           0           0           0         110
           1          18        -502
Full Title                                 C   N=           2
GeMe3_new_1 0.0         
Route                                      C   N=           2
# nosymm b3lyp/6-31G*   
Charge                                     I                0
Multiplicity                               I                1
Number of electrons                        I               68
Number of alpha electrons                  I               34
Number of beta electrons                   I               34
Number of basis functions                  I              114
Number of independent functions            I              114
Number of point charges in /Mol/           I                0
Number of translation vectors              I                0
Atomic numbers                             I   N=          17
           6           1           6           1           1           1
           6           1           1           1           6           1
           1           1          32           1           1
Nuclear charges                            R   N=          17
  6.00000000E+00  1.00000000E+00  6.00000000E+00  1.00000000E+00  1.00000000E+00
  1.00000000E+00  6.00000000E+00  1.00000000E+00  1.00000000E+00  1.00000000E+00
  6.00000000E+00  1.00000000E+00  1.00000000E+00  1.00000000E+00  3.20000000E+01
  1.00000000E+00  1.00000000E+00
Current cartesian coordinates              R   N=          51
  0.00000000E+00  0.00000000E+00  0.00000000E+00 -1.72775796E+00  8.74780018E-01
 -7.32846109E-01 -1.90813414E-01  3.47596826E+00  4.92303609E+00 -1.91701437E+00
  4.39873224E+00  4.24760329E+00 -2.01673537E-01  3.52118980E+00  6.99312116E+00
  1.43229452E+00  4.57823933E+00  4.26120249E+00 -2.91501421E+00 -1.90312309E+00
  4.92334835E+00 -2.95047929E+00 -1.93175161E+00  6.99345093E+00 -4.68102371E+00
 -1.05052836E+00  4.25864479E+00 -2.84963086E+00 -3.86049710E+00  4.25113944E+00
  3.10571241E+00 -1.57278899E+00  4.92304518E+00  4.76785549E+00 -5.37514833E-01
  4.25005481E+00  3.14896104E+00 -1.58867030E+00  6.99318488E+00  3.25009204E+00
 -3.52867250E+00  4.25885375E+00  0.00000000E+00  0.00000000E+00  3.69243938E+00
  1.06240478E-01 -1.93361919E+00 -7.33008531E-01  1.62138277E+00  1.05878133E+00
 -7.33187356E-01
Number of symbols in /Mol/                 I                0
Force Field                                I                0
Atom Types                                 C   N=          17
                                                            
                                                            
                                                            
                        
Int Atom Types                             I   N=          17
           0           0           0           0           0           0
           0           0           0           0           0           0
           0           0           0           0           0
MM charges                                 R   N=          17
  0.00000000E+00  0.00000000E+00  0.00000000E+00  0.00000000E+00  0.00000000E+00
  0.00000000E+00  0.00000000E+00  0.00000000E+00  0.00000000E+00  0.00000000E+00
  0.00000000E+00  0.00000000E+00  0.00000000E+00  0.00000000E+00  0.00000000E+00
  0.00000000E+00  0.00000000E+00
Integer atomic weights                     I   N=          17
          12           1          12           1           1           1
          12           1           1           1          12           1
           1           1          74           1           1
Real atomic weights                        R   N=          17
  1.20000000E+01  1.00782504E+00  1.20000000E+01  1.00782504E+00  1.00782504E+00
  1.00782504E+00  1.20000000E+01  1.00782504E+00  1.00782504E+00  1.00782504E+00
  1.20000000E+01  1.00782504E+00  1.00782504E+00  1.00782504E+00  7.39211788E+01
  1.00782504E+00  1.00782504E+00
Atom fragment info                         I   N=          17
           0           0           0           0           0           0
           0           0           0           0           0           0
           0           0           0           0           0
Atom residue num                           I   N=          17
           0           0           0           0           0           0
           0           0           0           0           0           0
           0           0           0           0           0
Nuclear spins                              I   N=          17
           0           1           0           1           1           1
           0           1           1           1           0           1
           1           1           0           1           1
Nuclear ZEff                               R   N=          17
 -3.60000000E+00 -1.00000000E+00 -3.60000000E+00 -1.00000000E+00 -1.00000000E+00
 -1.00000000E+00 -3.60000000E+00 -1.00000000E+00 -1.00000000E+00 -1.00000000E+00
 -3.60000000E+00 -1.00000000E+00 -1.00000000E+00 -1.00000000E+00 -2.52800000E+01
 -1.00000000E+00 -1.00000000E+00
Nuclear ZNuc                               R   N=          17
  6.00000000E+00  1.00000000E+00  6.00000000E+00  1.00000000E+00  1.00000000E+00
  1.00000000E+00  6.00000000E+00  1.00000000E+00  1.00000000E+00  1.00000000E+00
  6.00000000E+00  1.00000000E+00  1.00000000E+00  1.00000000E+00  3.20000000E+01
  1.00000000E+00  1.00000000E+00
Nuclear QMom                               R   N=          17
  0.00000000E+00  0.00000000E+00  0.00000000E+00  0.00000000E+00  0.00000000E+00
  0.00000000E+00  0.00000000E+00  0.00000000E+00  0.00000000E+00  0.00000000E+00
  0.00000000E+00  0.00000000E+00  0.00000000E+00  0.00000000E+00  0.00000000E+00
  0.00000000E+00  0.00000000E+00
Nuclear GFac                               R   N=          17
  0.00000000E+00  2.79284600E+00  0.00000000E+00  2.79284600E+00  2.79284600E+00
  2.79284600E+00  0.00000000E+00  2.79284600E+00  2.79284600E+00  2.79284600E+00
  0.00000000E+00  2.79284600E+00  2.79284600E+00  2.79284600E+00  0.00000000E+00
  2.79284600E+00  2.79284600E+00
MicOpt                                     I   N=          17
          -1          -1          -1          -1          -1          -1
          -1          -1          -1          -1          -1          -1
          -1          -1          -1          -1          -1
Number of residues                         I                0
Number of secondary structures             I                0
Number of contracted shells                I               52
Number of primitive shells                 I              123
Pure/Cartesian d shells                    I                1
Pure/Cartesian f shells                    I                0
Highest angular momentum                   I                2
Largest degree of contraction              I                8
Shell types                                I   N=          52
           0          -1          -1           2           0           0
           0          -1          -1           2           0           0
           0           0           0           0           0          -1
          -1           2           0           0           0           0
           0           0           0          -1          -1           2
           0           0           0           0           0           0
           0           0           0           0           0           0
           1           1           1           1           2           2
           0           0           0           0
Number of primitives per shell             I   N=          52
           6           3           1           1           3           1
           6           3           1           1           3           1
           3           1           3           1           6           3
           1           1           3           1           3           1
           3           1           6           3           1           1
           3           1           3           1           3           1
           8           2           1           1           1           1
           6           3           1           1           5           1
           3           1           3           1
Shell to atom map                          I   N=          52
           1           1           1           1           2           2
           3           3           3           3           4           4
           5           5           6           6           7           7
           7           7           8           8           9           9
          10          10          11          11          11          11
          12          12          13          13          14          14
          15          15          15          15          15          15
          15          15          15          15          15          15
          16          16          17          17
Primitive exponents                        R   N=         123
  3.04752488E+03  4.57369518E+02  1.03948685E+02  2.92101553E+01  9.28666296E+00
  3.16392696E+00  7.86827235E+00  1.88128854E+00  5.44249258E-01  1.68714478E-01
  8.00000000E-01  1.87311370E+01  2.82539436E+00  6.40121692E-01  1.61277759E-01
  3.04752488E+03  4.57369518E+02  1.03948685E+02  2.92101553E+01  9.28666296E+00
  3.16392696E+00  7.86827235E+00  1.88128854E+00  5.44249258E-01  1.68714478E-01
  8.00000000E-01  1.87311370E+01  2.82539436E+00  6.40121692E-01  1.61277759E-01
  1.87311370E+01  2.82539436E+00  6.40121692E-01  1.61277759E-01  1.87311370E+01
  2.82539436E+00  6.40121692E-01  1.61277759E-01  3.04752488E+03  4.57369518E+02
  1.03948685E+02  2.92101553E+01  9.28666296E+00  3.16392696E+00  7.86827235E+00
  1.88128854E+00  5.44249258E-01  1.68714478E-01  8.00000000E-01  1.87311370E+01
  2.82539436E+00  6.40121692E-01  1.61277759E-01  1.87311370E+01  2.82539436E+00
  6.40121692E-01  1.61277759E-01  1.87311370E+01  2.82539436E+00  6.40121692E-01
  1.61277759E-01  3.04752488E+03  4.57369518E+02  1.03948685E+02  2.92101553E+01
  9.28666296E+00  3.16392696E+00  7.86827235E+00  1.88128854E+00  5.44249258E-01
  1.68714478E-01  8.00000000E-01  1.87311370E+01  2.82539436E+00  6.40121692E-01
  1.61277759E-01  1.87311370E+01  2.82539436E+00  6.40121692E-01  1.61277759E-01
  1.87311370E+01  2.82539436E+00  6.40121692E-01  1.61277759E-01  4.89000000E+05
  7.31000000E+04  1.66400000E+04  4.74200000E+03  1.56900000E+03  5.77000000E+02
  2.29000000E+02  9.48100000E+01  2.92200000E+01  1.24500000E+01  3.64200000E+00
  1.50200000E+00  2.46200000E-01  9.20900000E-02  3.59600000E+03  8.43700000E+02
  2.66200000E+02  9.82800000E+01  3.99300000E+01  1.71400000E+01  7.15700000E+00
  3.06800000E+00  1.24600000E+00  2.79500000E-01  8.34000000E-02  7.01800000E+01
  2.00700000E+01  7.05900000E+00  2.55300000E+00  8.30100000E-01  2.02000000E-01
  1.87311370E+01  2.82539436E+00  6.40121692E-01  1.61277759E-01  1.87311370E+01
  2.82539436E+00  6.40121692E-01  1.61277759E-01
Contraction coefficients                   R   N=         123
  1.83473713E-03  1.40373228E-02  6.88426223E-02  2.32184443E-01  4.67941348E-01
  3.62311985E-01 -1.19332420E-01 -1.60854152E-01  1.14345644E+00  1.00000000E+00
  1.00000000E+00  3.34946043E-02  2.34726953E-01  8.13757326E-01  1.00000000E+00
  1.83473713E-03  1.40373228E-02  6.88426223E-02  2.32184443E-01  4.67941348E-01
  3.62311985E-01 -1.19332420E-01 -1.60854152E-01  1.14345644E+00  1.00000000E+00
  1.00000000E+00  3.34946043E-02  2.34726953E-01  8.13757326E-01  1.00000000E+00
  3.34946043E-02  2.34726953E-01  8.13757326E-01  1.00000000E+00  3.34946043E-02
  2.34726953E-01  8.13757326E-01  1.00000000E+00  1.83473713E-03  1.40373228E-02
  6.88426223E-02  2.32184443E-01  4.67941348E-01  3.62311985E-01 -1.19332420E-01
 -1.60854152E-01  1.14345644E+00  1.00000000E+00  1.00000000E+00  3.34946043E-02
  2.34726953E-01  8.13757326E-01  1.00000000E+00  3.34946043E-02  2.34726953E-01
  8.13757326E-01  1.00000000E+00  3.34946043E-02  2.34726953E-01  8.13757326E-01
  1.00000000E+00  1.83473713E-03  1.40373228E-02  6.88426223E-02  2.32184443E-01
  4.67941348E-01  3.62311985E-01 -1.19332420E-01 -1.60854152E-01  1.14345644E+00
  1.00000000E+00  1.00000000E+00  3.34946043E-02  2.34726953E-01  8.13757326E-01
  1.00000000E+00  3.34946043E-02  2.34726953E-01  8.13757326E-01  1.00000000E+00
  3.34946043E-02  2.34726953E-01  8.13757326E-01  1.00000000E+00  2.12702672E-04
  1.65563161E-03  8.57517530E-03  3.44013038E-02  1.08114277E-01  2.75440380E-01
  4.16293622E-01  2.93980004E-01  3.08124471E-01  7.19004410E-01  1.00000000E+00
  1.00000000E+00  1.00000000E+00  1.00000000E+00  1.48764785E-03  1.28358630E-02
  6.67419485E-02  2.25587043E-01  4.05801859E-01  4.48285450E-01  2.74588665E-01
  5.15597270E-01  3.17412304E-01  1.00000000E+00  1.00000000E+00  2.88992213E-02
  1.55947310E-01  3.69793512E-01  4.67872065E-01  2.87766733E-01  1.00000000E+00
  3.34946043E-02  2.34726953E-01  8.13757326E-01  1.00000000E+00  3.34946043E-02
  2.34726953E-01  8.13757326E-01  1.00000000E+00
P(S=P) Contraction coefficients            R   N=         123
  0.00000000E+00  0.00000000E+00  0.00000000E+00  0.00000000E+00  0.00000000E+00
  0.00000000E+00  6.89990666E-02  3.16423961E-01  7.44308291E-01  1.00000000E+00
  0.00000000E+00  0.00000000E+00  0.00000000E+00  0.00000000E+00  0.00000000E+00
  0.00000000E+00  0.00000000E+00  0.00000000E+00  0.00000000E+00  0.00000000E+00
  0.00000000E+00  6.89990666E-02  3.16423961E-01  7.44308291E-01  1.00000000E+00
  0.00000000E+00  0.00000000E+00  0.00000000E+00  0.00000000E+00  0.00000000E+00
  0.00000000E+00  0.00000000E+00  0.00000000E+00  0.00000000E+00  0.00000000E+00
  0.00000000E+00  0.00000000E+00  0.00000000E+00  0.00000000E+00  0.00000000E+00
  0.00000000E+00  0.00000000E+00  0.00000000E+00  0.00000000E+00  6.89990666E-02
  3.16423961E-01  7.44308291E-01  1.00000000E+00  0.00000000E+00  0.00000000E+00
  0.00000000E+00  0.00000000E+00  0.00000000E+00  0.00000000E+00  0.00000000E+00
  0.00000000E+00  0.00000000E+00  0.00000000E+00  0.00000000E+00  0.00000000E+00
  0.00000000E+00  0.00000000E+00  0.00000000E+00  0.00000000E+00  0.00000000E+00
  0.00000000E+00  0.00000000E+00  6.89990666E-02  3.16423961E-01  7.44308291E-01
  1.00000000E+00  0.00000000E+00  0.00000000E+00  0.00000000E+00  0.00000000E+00
  0.00000000E+00  0.00000000E+00  0.00000000E+00  0.00000000E+00  0.00000000E+00
  0.00000000E+00  0.00000000E+00  0.00000000E+00  0.00000000E+00  0.00000000E+00
  0.00000000E+00  0.00000000E+00  0.00000000E+00  0.00000000E+00  0.00000000E+00
  0.00000000E+00  0.00000000E+00  0.00000000E+00  0.00000000E+00  0.00000000E+00
  0.00000000E+00  0.00000000E+00  0.00000000E+00  0.00000000E+00  0.00000000E+00
  0.00000000E+00  0.00000000E+00  0.00000000E+00  0.00000000E+00  0.00000000E+00
  0.00000000E+00  0.00000000E+00  0.00000000E+00  0.00000000E+00  0.00000000E+00
  0.00000000E+00  0.00000000E+00  0.00000000E+00  0.00000000E+00  0.00000000E+00
  0.00000000E+00  0.00000000E+00  0.00000000E+00  0.00000000E+00  0.00000000E+00
  0.00000000E+00  0.00000000E+00  0.00000000E+00
Coordinates of each shell                  R   N=         156
  0.00000000E+00  0.00000000E+00  0.00000000E+00  0.00000000E+00  0.00000000E+00
  0.00000000E+00  0.00000000E+00  0.00000000E+00  0.00000000E+00  0.00000000E+00
  0.00000000E+00  0.00000000E+00 -1.72775796E+00  8.74780018E-01 -7.32846109E-01
 -1.72775796E+00  8.74780018E-01 -7.32846109E-01 -1.90813414E-01  3.47596826E+00
  4.92303609E+00 -1.90813414E-01  3.47596826E+00  4.92303609E+00 -1.90813414E-01
  3.47596826E+00  4.92303609E+00 -1.90813414E-01  3.47596826E+00  4.92303609E+00
 -1.91701437E+00  4.39873224E+00  4.24760329E+00 -1.91701437E+00  4.39873224E+00
  4.24760329E+00 -2.01673537E-01  3.52118980E+00  6.99312116E+00 -2.01673537E-01
  3.52118980E+00  6.99312116E+00  1.43229452E+00  4.57823933E+00  4.26120249E+00
  1.43229452E+00  4.57823933E+00  4.26120249E+00 -2.91501421E+00 -1.90312309E+00
  4.92334835E+00 -2.91501421E+00 -1.90312309E+00  4.92334835E+00 -2.91501421E+00
 -1.90312309E+00  4.92334835E+00 -2.91501421E+00 -1.90312309E+00  4.92334835E+00
 -2.95047929E+00 -1.93175161E+00  6.99345093E+00 -2.95047929E+00 -1.93175161E+00
  6.99345093E+00 -4.68102371E+00 -1.05052836E+00  4.25864479E+00 -4.68102371E+00
 -1.05052836E+00  4.25864479E+00 -2.84963086E+00 -3.86049710E+00  4.25113944E+00
 -2.84963086E+00 -3.86049710E+00  4.25113944E+00  3.10571241E+00 -1.57278899E+00
  4.92304518E+00  3.10571241E+00 -1.57278899E+00  4.92304518E+00  3.10571241E+00
 -1.57278899E+00  4.92304518E+00  3.10571241E+00 -1.57278899E+00  4.92304518E+00
  4.76785549E+00 -5.37514833E-01  4.25005481E+00  4.76785549E+00 -5.37514833E-01
  4.25005481E+00  3.14896104E+00 -1.58867030E+00  6.99318488E+00  3.14896104E+00
 -1.58867030E+00  6.99318488E+00  3.25009204E+00 -3.52867250E+00  4.25885375E+00
  3.25009204E+00 -3.52867250E+00  4.25885375E+00  0.00000000E+00  0.00000000E+00
  3.69243938E+00  0.00000000E+00  0.00000000E+00  3.69243938E+00  0.00000000E+00
  0.00000000E+00  3.69243938E+00  0.00000000E+00  0.00000000E+00  3.69243938E+00
  0.00000000E+00  0.00000000E+00  3.69243938E+00  0.00000000E+00  0.00000000E+00
  3.69243938E+00  0.00000000E+00  0.00000000E+00  3.69243938E+00  0.00000000E+00
  0.00000000E+00  3.69243938E+00  0.00000000E+00  0.00000000E+00  3.69243938E+00
  0.00000000E+00  0.00000000E+00  3.69243938E+00  0.00000000E+00  0.00000000E+00
  3.69243938E+00  0.00000000E+00  0.00000000E+00  3.69243938E+00  1.06240478E-01
 -1.93361919E+00 -7.33008531E-01  1.06240478E-01 -1.93361919E+00 -7.33008531E-01
  1.62138277E+00  1.05878133E+00 -7.33187356E-01  1.62138277E+00  1.05878133E+00
 -7.33187356E-01
Num ILSW                                   I              100
ILSW                                       I   N=         100
           0           1           0           0           2           0
           0           0           0           0         402          -1
           5           0           0           0           0           0
           0           0           1           0           0           0
           1           1           0           0           0           0
           0           0      100000           0          -1           0
           0           0           0           0           0           0
           0           0           0           1           0           0
           0 -2000000000           1           0           0           0
           0           0           4          52           0           0
           0           0           5           0           0           0
           0           0           0           0           0           1
           0           0           0           0           0           0
           0           0           0           0           0           0
           0           0           0           0           0           0
           0           0           0           0           0           0
           0           0           0           0
Num RLSW                                   I               52
RLSW                                       R   N=          52
  8.00000000E-01  7.20000000E-01  1.00000000E+00  8.10000000E-01  2.00000000E-01
  0.00000000E+00  0.00000000E+00  1.00000000E+00  0.00000000E+00  0.00000000E+00
  0.00000000E+00  0.00000000E+00  1.00000000E+00  0.00000000E+00  0.00000000E+00
  0.00000000E+00  0.00000000E+00  1.00000000E+00  0.00000000E+00  0.00000000E+00
  0.00000000E+00  0.00000000E+00  1.00000000E+00  0.00000000E+00  0.00000000E+00
  0.00000000E+00  0.00000000E+00  1.00000000E+00  0.00000000E+00  0.00000000E+00
  0.00000000E+00  0.00000000E+00  1.00000000E+00  0.00000000E+00  0.00000000E+00
  0.00000000E+00  0.00000000E+00  0.00000000E+00  1.00000000E+00  1.00000000E+00
  0.00000000E+00  1.00000000E+00  0.00000000E+00  0.00000000E+00  0.00000000E+00
  0.00000000E+00  0.00000000E+00  0.00000000E+00  0.00000000E+00  0.00000000E+00
  0.00000000E+00  0.00000000E+00
MxBond                                     I                4
NBond                                      I   N=          17
           4           1           4           1           1           1
           4           1           1           1           4           1
           1           1           4           1           1
IBond                                      I   N=          68
           2          15          16          17           1           0
           0           0           4           5           6          15
           3           0           0           0           3           0
           0           0           3           0           0           0
           8           9          10          15           7           0
           0           0           7           0           0           0
           7           0           0           0          12          13
          14          15          11           0           0           0
          11           0           0           0          11           0
           0           0           1           3           7          11
           1           0           0           0           1           0
           0           0
RBond                                      R   N=          68
  1.00000000E+00  1.00000000E+00  1.00000000E+00  1.00000000E+00  1.00000000E+00
  0.00000000E+00  0.00000000E+00  0.00000000E+00  1.00000000E+00  1.00000000E+00
  1.00000000E+00  1.00000000E+00  1.00000000E+00  0.00000000E+00  0.00000000E+00
  0.00000000E+00  1.00000000E+00  0.00000000E+00  0.00000000E+00  0.00000000E+00
  1.00000000E+00  0.00000000E+00  0.00000000E+00  0.00000000E+00  1.00000000E+00
  1.00000000E+00  1.00000000E+00  1.00000000E+00  1.00000000E+00  0.00000000E+00
  0.00000000E+00  0.00000000E+00  1.00000000E+00  0.00000000E+00  0.00000000E+00
  0.00000000E+00  1.00000000E+00  0.00000000E+00  0.00000000E+00  0.00000000E+00
  1.00000000E+00  1.00000000E+00  1.00000000E+00  1.00000000E+00  1.00000000E+00
  0.00000000E+00  0.00000000E+00  0.00000000E+00  1.00000000E+00  0.00000000E+00
  0.00000000E+00  0.00000000E+00  1.00000000E+00  0.00000000E+00  0.00000000E+00
  0.00000000E+00  1.00000000E+00  1.00000000E+00  1.00000000E+00  1.00000000E+00
  1.00000000E+00  0.00000000E+00  0.00000000E+00  0.00000000E+00  1.00000000E+00
  0.00000000E+00  0.00000000E+00  0.00000000E+00
Virial Ratio                               R      2.004643590107739E+00
SCF Energy                                 R     -2.234687117978385E+03
Total Energy                               R     -2.234687117978385E+03
RMS Density                                R      6.710335617252531E-09
Job Status                                 I                1
Nuclear derivative order                   I                0
External E-field                           R   N=          35
  0.00000000E+00  0.00000000E+00  0.00000000E+00  0.00000000E+00  0.00000000E+00
  0.00000000E+00  0.00000000E+00  0.00000000E+00  0.00000000E+00  0.00000000E+00
  0.00000000E+00  0.00000000E+00  0.00000000E+00  0.00000000E+00  0.00000000E+00
  0.00000000E+00  0.00000000E+00  0.00000000E+00  0.00000000E+00  0.00000000E+00
  0.00000000E+00  0.00000000E+00  0.00000000E+00  0.00000000E+00  0.00000000E+00
  0.00000000E+00  0.00000000E+00  0.00000000E+00  0.00000000E+00  0.00000000E+00
  0.00000000E+00  0.00000000E+00  0.00000000E+00  0.00000000E+00  0.00000000E+00
IOpCl                                      I                0
IROHF                                      I                0
Alpha Orbital Energies                     R   N=         114
 -3.98662607E+02 -4.91788833E+01 -4.42819758E+01 -4.42819758E+01 -4.42819757E+01
 -1.01607816E+01 -1.01607803E+01 -1.01607789E+01 -1.01607749E+01 -6.08762557E+00
 -4.35306647E+00 -4.35306628E+00 -4.35306603E+00 -1.17943486E+00 -1.17943467E+00
 -1.17943415E+00 -1.17697244E+00 -1.17697220E+00 -7.11740997E-01 -6.68286821E-01
 -6.68283595E-01 -6.68279599E-01 -4.63007889E-01 -4.04786466E-01 -4.04785257E-01
 -4.04778681E-01 -3.90232305E-01 -3.90231685E-01 -3.77580617E-01 -3.77579407E-01
 -3.77578672E-01 -2.79864486E-01 -2.79858113E-01 -2.79850015E-01  7.46283050E-02
  1.06211342E-01  1.06216599E-01  1.06218885E-01  1.43812594E-01  1.45084478E-01
  1.45086540E-01  1.45092600E-01  1.63270842E-01  1.63275690E-01  1.98190056E-01
  1.98224920E-01  1.98239089E-01  2.00052175E-01  2.00065224E-01  2.00092399E-01
  3.42505778E-01  4.00043203E-01  4.00051859E-01  4.00057309E-01  4.22977517E-01
  4.22979799E-01  4.83978863E-01  4.83986794E-01  4.83991637E-01  6.30391942E-01
  6.30402718E-01  6.58205950E-01  7.01471798E-01  7.01480612E-01  7.01490909E-01
  7.38127098E-01  7.38142670E-01  7.38156566E-01  8.54524644E-01  8.54539565E-01
  8.54552939E-01  9.04521218E-01  9.04529825E-01  9.04533065E-01  9.14821347E-01
  9.14825273E-01  9.14833349E-01  9.35790726E-01  9.47281302E-01  9.47283591E-01
  1.01542269E+00  1.01542855E+00  1.01543561E+00  1.10976029E+00  1.31663537E+00
  1.31665638E+00  1.31667205E+00  1.43139933E+00  1.66666659E+00  1.66666873E+00
  1.66666932E+00  1.84133057E+00  1.84134905E+00  1.84136461E+00  1.87812259E+00
  1.87813365E+00  2.02456448E+00  2.10172998E+00  2.10173220E+00  2.10174588E+00
  2.28396646E+00  2.28397467E+00  2.28529692E+00  2.28530350E+00  2.28531141E+00
  2.30181115E+00  2.30181576E+00  2.30181682E+00  4.16333904E+00  4.21366979E+00
  4.21368231E+00  4.21369157E+00  5.95572953E+00  4.11103162E+01
Alpha MO coefficients                      R   N=       12996
  3.29861405E-05 -2.35281807E-04 -3.45651669E-09 -2.68244486E-08 -3.08248965E-05
 -2.80877719E-03 -3.79572715E-08  1.74236383E-07  2.50751442E-04  1.13914662E-05
  1.13950302E-05  7.87390476E-04  1.54530976E-08  2.11589428E-08  2.79606044E-09
  5.68859478E-05  1.38060884E-03  3.29804038E-05 -2.35317322E-04 -1.62298659E-06
  2.89110027E-05  1.02331377E-05 -2.80885556E-03  1.31116169E-05 -2.36106866E-04
 -8.35625496E-05  1.34646807E-05  6.99210535E-04  9.75931094E-05 -4.36079840E-05
 -1.54656506E-05  2.81180951E-04  5.68934746E-05  1.38078163E-03  5.68615754E-05
  1.38077214E-03  5.67740630E-05  1.38096470E-03  3.29914118E-05 -2.35243206E-04
 -2.43557153E-05 -1.59146965E-05  1.03141071E-05 -2.80894625E-03  1.97912550E-04
  1.29194703E-04 -8.36869584E-05  4.94994973E-04  2.17530700E-04  9.76250692E-05
  3.64546561E-04 -2.35800259E-04 -1.53991783E-04  5.69218394E-05  1.38066067E-03
  5.67511743E-05  1.38108048E-03  5.70144242E-05  1.38035737E-03  3.30020783E-05
 -2.35230948E-04  2.58590114E-05 -1.30785587E-05  1.02382573E-05 -2.80932273E-03
 -2.10671535E-04  1.06667277E-04 -8.34731067E-05  5.60474197E-04  1.52209078E-04
  9.76410626E-05 -3.21063824E-04  2.51205172E-04 -1.27169894E-04  5.69834474E-05
  1.38040120E-03  5.68162075E-05  1.38083120E-03  5.68345765E-05  1.38081423E-03
  9.97110372E-01  2.43673323E-02 -3.45318275E-02 -5.70140576E-02 -2.88268503E-02
 -3.15961045E-02 -2.52844858E-09 -1.58493127E-09 -8.87660829E-10  8.09579274E-09
  4.94416196E-09  4.23623531E-09 -1.72998874E-08  2.75753475E-08 -1.25550074E-08
  3.07894429E-07 -5.31647037E-07  1.52395179E-07  4.70823785E-02  4.70823803E-02
  4.70823901E-02  2.56944526E-10  1.44500192E-09  8.62913574E-10  1.64622463E-02
  1.64620771E-02  1.64620659E-02 -1.46964826E-08 -1.57701728E-08 -6.23331719E-08
  5.68830795E-05  1.38078827E-03  5.68544785E-05  1.38078160E-03  2.51497941E-04
 -1.79304439E-03 -2.85189553E-08 -2.16464479E-07 -3.84014070E-04 -2.25446370E-02
 -2.99664847E-07  1.41263809E-06  2.12786026E-03  2.45307845E-05  2.45592286E-05
  6.13989432E-03  1.24042020E-07  1.64574139E-07  2.08105795E-08  4.79758721E-04
  1.12253678E-02  2.51455729E-04 -1.79339740E-03 -2.00919030E-05  3.60653389E-04
  1.27664276E-04 -2.25453219E-02  1.11243058E-04 -2.00358729E-03 -7.09111673E-04
  4.08759498E-05  5.44506841E-03  7.03872772E-04 -3.43663737E-04 -1.21882476E-04
  2.21591656E-03  4.79832928E-04  1.12267988E-02  4.79568807E-04  1.12266911E-02
  4.78863792E-04  1.12282363E-02  2.51539407E-04 -1.79272342E-03 -3.03322849E-04
 -1.98144848E-04  1.28325004E-04 -2.25459929E-02  1.67947000E-03  1.09633211E-03
 -7.10146832E-04  3.83561785E-03  1.64903625E-03  7.04100587E-04  2.87284762E-03
 -1.85825353E-03 -1.21354458E-03  4.80047767E-04  1.12257848E-02  4.78675703E-04
  1.12291456E-02  4.80771784E-04  1.12233080E-02  2.51626720E-04 -1.79266423E-03
  3.22457567E-04 -1.63158482E-04  1.27701780E-04 -2.25490632E-02 -1.78785271E-03
  9.05216045E-04 -7.08376002E-04  4.35169055E-03  1.13427421E-03  7.04238100E-04
 -2.53020924E-03  1.97967186E-03 -1.00218811E-03  4.80545499E-04  1.12237082E-02
  4.79203840E-04  1.12271436E-02  4.79348738E-04  1.12270111E-02 -4.22251005E-01
  1.14897061E+00 -2.19762508E-01 -4.33285748E-01 -2.22847724E-01 -2.56100314E-01
 -1.34820617E-07 -1.01812550E-07  8.72864809E-08  5.32291250E-08  3.03359772E-08
  4.69835629E-08 -1.38398435E-07  2.32641067E-07 -1.14076637E-07  2.47757082E-06
 -4.32997921E-06  1.26513095E-06  3.63116602E-01  3.63116615E-01  3.63116698E-01
  4.09826933E-09  1.31299379E-08  7.13231090E-09  1.31921965E-01  1.31920586E-01
  1.31920492E-01 -1.28162117E-07 -1.37339099E-07 -5.07442535E-07  4.79733393E-04
  1.12268149E-02  4.79498296E-04  1.12267574E-02  1.57456847E-04  1.41511049E-03
 -2.22036199E-04  5.86010411E-05 -5.18318118E-04 -5.33357875E-03  1.56836401E-03
 -4.13913984E-04 -2.38957346E-03  3.21496361E-04  2.79384806E-04 -1.09252813E-03
 -5.45634611E-05  3.61150688E-04 -9.50169409E-05  2.80595914E-04  1.67224821E-03
  1.00519380E-04  9.03542640E-04 -2.36745655E-04  3.29012515E-04  2.69198613E-05
 -3.40525164E-03  1.47290128E-03  1.31332823E-03  1.09705588E-03  2.44144579E-04