iPr                                                                     
SP        RB3LYP                                                      6-31G(d)            
Number of atoms                            I               11
Info1-9                                    I   N=           9
          20          20           0           0           0         110
           1          18        -502
Full Title                                 C   N=           1
iPr         
Route                                      C   N=           2
# nosymm b3lyp/6-31G*   
Charge                                     I                0
Multiplicity                               I                1
Number of electrons                        I               26
Number of alpha electrons                  I               13
Number of beta electrons                   I               13
Number of basis functions                  I               61
Number of independent functions            I               61
Number of point charges in /Mol/           I                0
Number of translation vectors              I                0
Atomic numbers                             I   N=          11
           1           6           6           1           1           1
           6           1           1           1           1
Nuclear charges                            R   N=          11
  1.00000000E+00  6.00000000E+00  6.00000000E+00  1.00000000E+00  1.00000000E+00
  1.00000000E+00  6.00000000E+00  1.00000000E+00  1.00000000E+00  1.00000000E+00
  1.00000000E+00
Current cartesian coordinates              R   N=          33
  0.00000000E+00  0.00000000E+00  0.00000000E+00  0.00000000E+00  0.00000000E+00
  2.06781391E+00 -2.40199308E+00  1.27730368E+00  3.02751133E+00 -2.48037892E+00
  1.25067744E+00  5.09118674E+00 -2.47998208E+00  3.25221866E+00  2.42831697E+00
 -4.09660498E+00  3.37032654E-01  2.32048919E+00  2.40197419E+00  1.27730368E+00
  3.02751133E+00  4.09660498E+00  3.37032654E-01  2.32048919E+00  2.47998208E+00
  3.25221866E+00  2.42833586E+00  2.48037892E+00  1.25067744E+00  5.09118674E+00
  0.00000000E+00 -1.98613995E+00  2.64183712E+00
Number of symbols in /Mol/                 I                0
Force Field                                I                0
Atom Types                                 C   N=          11
                                                            
                                                            
            
Int Atom Types                             I   N=          11
           0           0           0           0           0           0
           0           0           0           0           0
MM charges                                 R   N=          11
  0.00000000E+00  0.00000000E+00  0.00000000E+00  0.00000000E+00  0.00000000E+00
  0.00000000E+00  0.00000000E+00  0.00000000E+00  0.00000000E+00  0.00000000E+00
  0.00000000E+00
Integer atomic weights                     I   N=          11
           1          12          12           1           1           1
          12           1           1           1           1
Real atomic weights                        R   N=          11
  1.00782504E+00  1.20000000E+01  1.20000000E+01  1.00782504E+00  1.00782504E+00
  1.00782504E+00  1.20000000E+01  1.00782504E+00  1.00782504E+00  1.00782504E+00
  1.00782504E+00
Atom fragment info                         I   N=          11
           0           0           0           0           0           0
           0           0           0           0           0
Atom residue num                           I   N=          11
           0           0           0           0           0           0
           0           0           0           0           0
Nuclear spins                              I   N=          11
           1           0           0           1           1           1
           0           1           1           1           1
Nuclear ZEff                               R   N=          11
 -1.00000000E+00 -3.60000000E+00 -3.60000000E+00 -1.00000000E+00 -1.00000000E+00
 -1.00000000E+00 -3.60000000E+00 -1.00000000E+00 -1.00000000E+00 -1.00000000E+00
 -1.00000000E+00
Nuclear ZNuc                               R   N=          11
  1.00000000E+00  6.00000000E+00  6.00000000E+00  1.00000000E+00  1.00000000E+00
  1.00000000E+00  6.00000000E+00  1.00000000E+00  1.00000000E+00  1.00000000E+00
  1.00000000E+00
Nuclear QMom                               R   N=          11
  0.00000000E+00  0.00000000E+00  0.00000000E+00  0.00000000E+00  0.00000000E+00
  0.00000000E+00  0.00000000E+00  0.00000000E+00  0.00000000E+00  0.00000000E+00
  0.00000000E+00
Nuclear GFac                               R   N=          11
  2.79284600E+00  0.00000000E+00  0.00000000E+00  2.79284600E+00  2.79284600E+00
  2.79284600E+00  0.00000000E+00  2.79284600E+00  2.79284600E+00  2.79284600E+00
  2.79284600E+00
MicOpt                                     I   N=          11
          -1          -1          -1          -1          -1          -1
          -1          -1          -1          -1          -1
Number of residues                         I                0
Number of secondary structures             I                0
Number of contracted shells                I               28
Number of primitive shells                 I               65
Pure/Cartesian d shells                    I                1
Pure/Cartesian f shells                    I                0
Highest angular momentum                   I                2
Largest degree of contraction              I                6
Shell types                                I   N=          28
           0           0           0          -1          -1           2
           0          -1          -1           2           0           0
           0           0           0           0           0          -1
          -1           2           0           0           0           0
           0           0           0           0
Number of primitives per shell             I   N=          28
           3           1           6           3           1           1
           6           3           1           1           3           1
           3           1           3           1           6           3
           1           1           3           1           3           1
           3           1           3           1
Shell to atom map                          I   N=          28
           1           1           2           2           2           2
           3           3           3           3           4           4
           5           5           6           6           7           7
           7           7           8           8           9           9
          10          10          11          11
Primitive exponents                        R   N=          65
  1.87311370E+01  2.82539436E+00  6.40121692E-01  1.61277759E-01  3.04752488E+03
  4.57369518E+02  1.03948685E+02  2.92101553E+01  9.28666296E+00  3.16392696E+00
  7.86827235E+00  1.88128854E+00  5.44249258E-01  1.68714478E-01  8.00000000E-01
  3.04752488E+03  4.57369518E+02  1.03948685E+02  2.92101553E+01  9.28666296E+00
  3.16392696E+00  7.86827235E+00  1.88128854E+00  5.44249258E-01  1.68714478E-01
  8.00000000E-01  1.87311370E+01  2.82539436E+00  6.40121692E-01  1.61277759E-01
  1.87311370E+01  2.82539436E+00  6.40121692E-01  1.61277759E-01  1.87311370E+01
  2.82539436E+00  6.40121692E-01  1.61277759E-01  3.04752488E+03  4.57369518E+02
  1.03948685E+02  2.92101553E+01  9.28666296E+00  3.16392696E+00  7.86827235E+00
  1.88128854E+00  5.44249258E-01  1.68714478E-01  8.00000000E-01  1.87311370E+01
  2.82539436E+00  6.40121692E-01  1.61277759E-01  1.87311370E+01  2.82539436E+00
  6.40121692E-01  1.61277759E-01  1.87311370E+01  2.82539436E+00  6.40121692E-01
  1.61277759E-01  1.87311370E+01  2.82539436E+00  6.40121692E-01  1.61277759E-01
Contraction coefficients                   R   N=          65
  3.34946043E-02  2.34726953E-01  8.13757326E-01  1.00000000E+00  1.83473713E-03
  1.40373228E-02  6.88426223E-02  2.32184443E-01  4.67941348E-01  3.62311985E-01
 -1.19332420E-01 -1.60854152E-01  1.14345644E+00  1.00000000E+00  1.00000000E+00
  1.83473713E-03  1.40373228E-02  6.88426223E-02  2.32184443E-01  4.67941348E-01
  3.62311985E-01 -1.19332420E-01 -1.60854152E-01  1.14345644E+00  1.00000000E+00
  1.00000000E+00  3.34946043E-02  2.34726953E-01  8.13757326E-01  1.00000000E+00
  3.34946043E-02  2.34726953E-01  8.13757326E-01  1.00000000E+00  3.34946043E-02
  2.34726953E-01  8.13757326E-01  1.00000000E+00  1.83473713E-03  1.40373228E-02
  6.88426223E-02  2.32184443E-01  4.67941348E-01  3.62311985E-01 -1.19332420E-01
 -1.60854152E-01  1.14345644E+00  1.00000000E+00  1.00000000E+00  3.34946043E-02
  2.34726953E-01  8.13757326E-01  1.00000000E+00  3.34946043E-02  2.34726953E-01
  8.13757326E-01  1.00000000E+00  3.34946043E-02  2.34726953E-01  8.13757326E-01
  1.00000000E+00  3.34946043E-02  2.34726953E-01  8.13757326E-01  1.00000000E+00
P(S=P) Contraction coefficients            R   N=          65
  0.00000000E+00  0.00000000E+00  0.00000000E+00  0.00000000E+00  0.00000000E+00
  0.00000000E+00  0.00000000E+00  0.00000000E+00  0.00000000E+00  0.00000000E+00
  6.89990666E-02  3.16423961E-01  7.44308291E-01  1.00000000E+00  0.00000000E+00
  0.00000000E+00  0.00000000E+00  0.00000000E+00  0.00000000E+00  0.00000000E+00
  0.00000000E+00  6.89990666E-02  3.16423961E-01  7.44308291E-01  1.00000000E+00
  0.00000000E+00  0.00000000E+00  0.00000000E+00  0.00000000E+00  0.00000000E+00
  0.00000000E+00  0.00000000E+00  0.00000000E+00  0.00000000E+00  0.00000000E+00
  0.00000000E+00  0.00000000E+00  0.00000000E+00  0.00000000E+00  0.00000000E+00
  0.00000000E+00  0.00000000E+00  0.00000000E+00  0.00000000E+00  6.89990666E-02
  3.16423961E-01  7.44308291E-01  1.00000000E+00  0.00000000E+00  0.00000000E+00
  0.00000000E+00  0.00000000E+00  0.00000000E+00  0.00000000E+00  0.00000000E+00
  0.00000000E+00  0.00000000E+00  0.00000000E+00  0.00000000E+00  0.00000000E+00
  0.00000000E+00  0.00000000E+00  0.00000000E+00  0.00000000E+00  0.00000000E+00
Coordinates of each shell                  R   N=          84
  0.00000000E+00  0.00000000E+00  0.00000000E+00  0.00000000E+00  0.00000000E+00
  0.00000000E+00  0.00000000E+00  0.00000000E+00  2.06781391E+00  0.00000000E+00
  0.00000000E+00  2.06781391E+00  0.00000000E+00  0.00000000E+00  2.06781391E+00
  0.00000000E+00  0.00000000E+00  2.06781391E+00 -2.40199308E+00  1.27730368E+00
  3.02751133E+00 -2.40199308E+00  1.27730368E+00  3.02751133E+00 -2.40199308E+00
  1.27730368E+00  3.02751133E+00 -2.40199308E+00  1.27730368E+00  3.02751133E+00
 -2.48037892E+00  1.25067744E+00  5.09118674E+00 -2.48037892E+00  1.25067744E+00
  5.09118674E+00 -2.47998208E+00  3.25221866E+00  2.42831697E+00 -2.47998208E+00
  3.25221866E+00  2.42831697E+00 -4.09660498E+00  3.37032654E-01  2.32048919E+00
 -4.09660498E+00  3.37032654E-01  2.32048919E+00  2.40197419E+00  1.27730368E+00
  3.02751133E+00  2.40197419E+00  1.27730368E+00  3.02751133E+00  2.40197419E+00
  1.27730368E+00  3.02751133E+00  2.40197419E+00  1.27730368E+00  3.02751133E+00
  4.09660498E+00  3.37032654E-01  2.32048919E+00  4.09660498E+00  3.37032654E-01
  2.32048919E+00  2.47998208E+00  3.25221866E+00  2.42833586E+00  2.47998208E+00
  3.25221866E+00  2.42833586E+00  2.48037892E+00  1.25067744E+00  5.09118674E+00
  2.48037892E+00  1.25067744E+00  5.09118674E+00  0.00000000E+00 -1.98613995E+00
  2.64183712E+00  0.00000000E+00 -1.98613995E+00  2.64183712E+00
Num ILSW                                   I              100
ILSW                                       I   N=         100
           0           1           0           0           2           0
           0           0           0           0         402          -1
           5           0           0           0           0           0
           0           0           1           0           0           0
           1           1           0           0           0           0
           0           0      100000           0          -1           0
           0           0           0           0           0           0
           0           0           0           1           0           0
           0 -2000000000           1           0           0           0
           0           0           4          52           0           0
           0           0           5           0           0           0
           0           0           0           0           0           1
           0           0           0           0           0           0
           0           0           0           0           0           0
           0           0           0           0           0           0
           0           0           0           0           0           0
           0           0           0           0
Num RLSW                                   I               52
RLSW                                       R   N=          52
  8.00000000E-01  7.20000000E-01  1.00000000E+00  8.10000000E-01  2.00000000E-01
  0.00000000E+00  0.00000000E+00  1.00000000E+00  0.00000000E+00  0.00000000E+00
  0.00000000E+00  0.00000000E+00  1.00000000E+00  0.00000000E+00  0.00000000E+00
  0.00000000E+00  0.00000000E+00  1.00000000E+00  0.00000000E+00  0.00000000E+00
  0.00000000E+00  0.00000000E+00  1.00000000E+00  0.00000000E+00  0.00000000E+00
  0.00000000E+00  0.00000000E+00  1.00000000E+00  0.00000000E+00  0.00000000E+00
  0.00000000E+00  0.00000000E+00  1.00000000E+00  0.00000000E+00  0.00000000E+00
  0.00000000E+00  0.00000000E+00  0.00000000E+00  1.00000000E+00  1.00000000E+00
  0.00000000E+00  1.00000000E+00  0.00000000E+00  0.00000000E+00  0.00000000E+00
  0.00000000E+00  0.00000000E+00  0.00000000E+00  0.00000000E+00  0.00000000E+00
  0.00000000E+00  0.00000000E+00
MxBond                                     I                4
NBond                                      I   N=          11
           1           4           4           1           1           1
           4           1           1           1           1
IBond                                      I   N=          44
           2           0           0           0           1           3
           7          11           2           4           5           6
           3           0           0           0           3           0
           0           0           3           0           0           0
           2           8           9          10           7           0
           0           0           7           0           0           0
           7           0           0           0           2           0
           0           0
RBond                                      R   N=          44
  1.00000000E+00  0.00000000E+00  0.00000000E+00  0.00000000E+00  1.00000000E+00
  1.00000000E+00  1.00000000E+00  1.00000000E+00  1.00000000E+00  1.00000000E+00
  1.00000000E+00  1.00000000E+00  1.00000000E+00  0.00000000E+00  0.00000000E+00
  0.00000000E+00  1.00000000E+00  0.00000000E+00  0.00000000E+00  0.00000000E+00
  1.00000000E+00  0.00000000E+00  0.00000000E+00  0.00000000E+00  1.00000000E+00
  1.00000000E+00  1.00000000E+00  1.00000000E+00  1.00000000E+00  0.00000000E+00
  0.00000000E+00  0.00000000E+00  1.00000000E+00  0.00000000E+00  0.00000000E+00
  0.00000000E+00  1.00000000E+00  0.00000000E+00  0.00000000E+00  0.00000000E+00
  1.00000000E+00  0.00000000E+00  0.00000000E+00  0.00000000E+00
Virial Ratio                               R      2.010116144326036E+00
SCF Energy                                 R     -1.191441056572892E+02
Total Energy                               R     -1.191441056572892E+02
RMS Density                                R      3.313582796027924E-09
Job Status                                 I                1
Nuclear derivative order                   I                0
External E-field                           R   N=          35
  0.00000000E+00  0.00000000E+00  0.00000000E+00  0.00000000E+00  0.00000000E+00
  0.00000000E+00  0.00000000E+00  0.00000000E+00  0.00000000E+00  0.00000000E+00
  0.00000000E+00  0.00000000E+00  0.00000000E+00  0.00000000E+00  0.00000000E+00
  0.00000000E+00  0.00000000E+00  0.00000000E+00  0.00000000E+00  0.00000000E+00
  0.00000000E+00  0.00000000E+00  0.00000000E+00  0.00000000E+00  0.00000000E+00
  0.00000000E+00  0.00000000E+00  0.00000000E+00  0.00000000E+00  0.00000000E+00
  0.00000000E+00  0.00000000E+00  0.00000000E+00  0.00000000E+00  0.00000000E+00
IOpCl                                      I                0
IROHF                                      I                0
Alpha Orbital Energies                     R   N=          61
 -1.01762434E+01 -1.01680672E+01 -1.01680566E+01 -7.76172201E-01 -6.76758852E-01
 -5.81047217E-01 -4.53233400E-01 -4.32546785E-01 -3.94075063E-01 -3.77209882E-01
 -3.33443533E-01 -3.32869981E-01 -3.24654088E-01  9.67723941E-02  1.49067010E-01
  1.51132873E-01  1.51525105E-01  1.71991067E-01  1.94725479E-01  1.96343939E-01
  1.98678966E-01  2.29712934E-01  2.68635175E-01  5.12563091E-01  5.17107164E-01
  5.48720759E-01  5.57990713E-01  5.82334887E-01  6.71827399E-01  7.05570958E-01
  7.38742244E-01  7.89126769E-01  8.75460768E-01  8.90277267E-01  8.93735433E-01
  9.16286487E-01  9.24913108E-01  9.60216596E-01  9.74445991E-01  9.87466113E-01
  1.03713847E+00  1.39237543E+00  1.46365223E+00  1.48085244E+00  1.56536140E+00
  1.74486756E+00  1.90655897E+00  1.93139038E+00  1.97687224E+00  2.04265090E+00
  2.09901594E+00  2.23968610E+00  2.26220729E+00  2.33578442E+00  2.39304770E+00
  2.42368260E+00  2.57642288E+00  2.67758615E+00  4.14377898E+00  4.28095474E+00
  4.46225241E+00
Alpha MO coefficients                      R   N=        3721
  5.14936024E-05  2.85558829E-03  9.92859140E-01  5.00417291E-02  8.86316531E-09
  4.21890055E-05  3.15744063E-05 -1.95274397E-02 -1.24318766E-08 -9.34700446E-04
 -7.00559424E-04 -9.00030423E-03 -8.89305350E-03 -8.86190192E-03  6.05995776E-09
  4.59648842E-09 -6.31033359E-05  1.32288893E-02  3.92944691E-04 -5.70002861E-05
  7.58788475E-05  5.70048565E-05  4.71283908E-03  1.86184324E-03 -9.96966191E-04
 -7.49470267E-04 -4.28643088E-04 -3.07420151E-04 -2.63523506E-04  1.42154704E-04
  1.06764503E-04 -8.74012691E-05 -1.79081435E-04  5.85080048E-05 -1.79060690E-04
  5.81561154E-05 -1.59597831E-04 -1.26788850E-04  1.32297569E-02  3.92984596E-04
  5.70088297E-05  7.58852449E-05  5.70095691E-05  4.71286994E-03 -1.86185368E-03
 -9.96977282E-04 -7.49479901E-04 -4.28654419E-04 -3.07427346E-04 -2.63530938E-04
 -1.42156943E-04 -1.06766173E-04 -8.74029065E-05 -1.59596666E-04 -1.26779507E-04
 -1.79060161E-04  5.81592527E-05 -1.79080967E-04  5.85140273E-05  5.07959293E-05
  2.85554281E-03 -1.09385790E-06  9.72752727E-08 -1.00707257E-04 -6.42698742E-06
 -1.48847044E-04 -6.42959440E-07 -4.82540340E-07  3.02088696E-05  2.67727732E-03
  5.77752080E-06  4.34098631E-06 -1.53167398E-06 -3.78847540E-07 -9.21032695E-08
 -1.52341958E-04 -1.14443250E-04 -5.71458894E-07 -6.98433718E-01 -3.53586767E-02
 -1.11534521E-04 -5.68873629E-05 -4.27504868E-05  1.25688660E-02  1.00019168E-03
  2.40635874E-05  1.82587375E-05  6.43330545E-03  6.36628330E-03  6.34823069E-03
 -4.00714836E-05 -3.01176460E-05  3.59800314E-05 -2.06008455E-05 -2.19588291E-03
 -2.05743779E-05 -2.19594671E-03  4.57279255E-05 -1.52460065E-03  7.05816486E-01
  3.57284637E-02 -1.10618377E-04  5.68476483E-05  4.27211364E-05 -1.26892306E-02
  1.00237443E-03 -2.04378366E-05 -1.55438480E-05 -6.50182180E-03 -6.43480194E-03
 -6.41681144E-03 -4.04675722E-05 -3.04154961E-05 -3.58658519E-05 -4.63675882E-05
  1.54703862E-03  1.98010206E-05  2.21456935E-03  1.98322974E-05  2.21450177E-03
 -1.09331619E-06  9.57188413E-08 -2.08419523E-04  1.73257984E-05 -1.90326286E-02
 -1.21638787E-03  7.75501111E-07 -1.21186552E-04 -9.10144053E-05  5.74525653E-03
 -1.40866691E-05  1.09744472E-03  8.24411562E-04 -2.91859778E-04 -7.31145650E-05
 -1.87572046E-05  7.99129079E-07  6.00299500E-07 -1.08466037E-04  7.05612709E-01
  3.53449297E-02 -8.66709948E-05 -3.75696554E-06 -2.87471635E-06 -1.15099996E-02
 -2.16559715E-04  3.45528832E-04  2.59809336E-04 -6.54839316E-03 -6.54827867E-03
 -6.55375348E-03  3.90658900E-05  2.93597264E-05  1.08237324E-05 -7.29434955E-05
  1.78107073E-03 -7.29659043E-05  1.78121417E-03 -6.21961346E-05  2.14307307E-03
  6.98227769E-01  3.49710794E-02  8.78347418E-05 -4.35144198E-06 -3.32143877E-06
 -1.13771560E-02  2.06016075E-04  3.45744708E-04  2.59966714E-04 -6.48036536E-03
 -6.48095522E-03 -6.48662534E-03 -3.86309287E-05 -2.90329119E-05  1.12030332E-05
 -6.17037066E-05  2.12688652E-03 -7.31790347E-05  1.75802504E-03 -7.31515924E-05
  1.75787587E-03 -2.08409757E-04  1.72613264E-05  7.96991641E-02  1.40157139E-02
 -1.46541521E-01  2.78683244E-01  1.51639375E-06  3.16022082E-02  2.37436551E-02
  2.21280759E-01  4.35328390E-08  2.68566249E-03  2.00533992E-03  1.56385969E-03
 -1.12443460E-03 -1.71959703E-03  9.49682512E-08  7.05998675E-08  1.17127545E-03
 -1.09828629E-01  2.07241503E-01  5.02458645E-02 -2.05951819E-02 -1.54787857E-02
  1.69104572E-01  8.24832387E-03 -2.93819001E-03 -2.20623871E-03  3.94633926E-03
 -5.94980946E-04 -1.10614513E-03 -2.89696438E-03 -2.17645770E-03  1.01667517E-03
  6.06706128E-02  1.23204029E-02  6.06765519E-02  1.23238764E-02  5.73864045E-02
  1.03333551E-02 -1.09830114E-01  2.07244432E-01 -5.02468339E-02 -2.05955100E-02
 -1.54790682E-02  1.69106784E-01 -8.24796850E-03 -2.93831259E-03 -2.20624820E-03
  3.94625230E-03 -5.94962899E-04 -1.10624190E-03  2.89715524E-03  2.17660190E-03
  1.01675407E-03  5.73863056E-02  1.03332503E-02  6.06772934E-02  1.23239481E-02
  6.06711355E-02  1.23204443E-02  7.97165414E-02  1.40210874E-02  4.11243556E-08
  6.86512932E-08  1.04418524E-07 -3.96228796E-07 -1.45627133E-01 -3.05131029E-07
 -2.53101095E-07  9.20562994E-08 -4.01712965E-02  2.76427440E-08  5.04032272E-08
  8.99922291E-08  4.57316670E-09  1.27922108E-08 -1.10297047E-02 -8.28719516E-03
 -9.15761918E-09 -1.41535104E-01  2.74048209E-01 -2.79479990E-02  6.50539153E-04
  4.83796565E-04  2.56732031E-01 -1.45323779E-02  3.18559297E-03  2.38993672E-03
 -3.68557749E-03  8.83092506E-04  1.17950468E-03  2.72711960E-03  2.04956820E-03
 -5.91582424E-04  9.69892196E-02  2.61759203E-02  9.69929579E-02  2.61731978E-02
  1.06029202E-01  3.07051965E-02  1.41533512E-01 -2.74045050E-01 -2.79472909E-02
 -6.51281184E-04 -4.84239860E-04 -2.56729476E-01 -1.45326275E-02 -3.18574132E-03
 -2.39017666E-03  3.68562506E-03 -8.83155049E-04 -1.17940396E-03  2.72681870E-03
  2.04934473E-03  5.91523028E-04 -1.06026537E-01 -3.07044186E-02 -9.69924314E-02
 -2.61729269E-02 -9.69882311E-02 -2.61755197E-02  2.19294074E-08  3.89593114E-08
  1.38550412E-01  5.80420103E-02 -1.29676246E-01  2.62141766E-01  3.94606898E-07
 -1.08523466E-01 -8.15007961E-02  2.63244865E-01  4.46257739E-08 -4.15455167E-02
 -3.12153953E-02 -1.54624527E-02  1.42510201E-03  4.69789094E-03 -5.73903529E-08
 -3.73530991E-08 -6.55506442E-03  8.05698677E-02 -1.60275626E-01  9.68424777E-02
 -8.29892599E-02 -6.23431778E-02 -1.67850007E-01  3.06697988E-02 -3.00465303E-02
 -2.25716355E-02  6.80674031E-03 -9.47049241E-04 -3.20078980E-03 -8.67962125E-03
 -6.52081638E-03  4.49441588E-03 -9.38872725E-02 -4.22057426E-02 -9.39044465E-02
 -4.22153960E-02 -7.28886688E-02 -3.24304879E-02  8.05704724E-02 -1.60276619E-01
 -9.68439101E-02 -8.29924490E-02 -6.23451774E-02 -1.67852027E-01 -3.06705008E-02
 -3.00473751E-02 -2.25722575E-02  6.80682070E-03 -9.47192441E-04 -3.20079854E-03
  8.67951453E-03  6.52073975E-03  4.49447095E-03 -7.28883004E-02 -3.24302700E-02
 -9.39068334E-02 -4.22163173E-02 -9.38887940E-02 -4.22062947E-02  1.38641935E-01
  5.80813660E-02 -1.41311432E-01 -1.02509932E-01  1.50591975E-05 -2.88282668E-05
  5.05118890E-07 -1.85940567E-01  2.47160714E-01 -5.20282177E-05  1.92528292E-07
 -8.05359228E-02  1.07067488E-01  2.53613378E-06  7.86577529E-03 -7.86553411E-03
 -7.43185579E-08  9.49883897E-08 -2.62473119E-03 -1.32230185E-05  2.57165775E-05
 -1.55379019E-04 -1.38442919E-01  1.84184294E-01  4.26467161E-05 -6.33355013E-05
 -5.99352340E-02  7.97377494E-02 -1.85673280E-06 -6.50654994E-03  6.51072395E-03
 -3.23099350E-03  4.30602933E-03  2.17547369E-03  1.08277032E-01  8.19866291E-02
 -1.08249287E-01 -8.19733484E-02  7.24989147E-05  5.24618320E-05 -1.31488298E-05
  2.55245718E-05  1.55366402E-04 -1.38444788E-01  1.84183819E-01  4.26138995E-05
  6.32768437E-05 -5.99359599E-02  7.97376266E-02 -1.80514214E-06 -6.50658162E-03
  6.51071236E-03  3.23093377E-03 -4.30597318E-03  2.17540853E-03  7.29727990E-05
  5.28138985E-05 -1.08249392E-01 -8.19732383E-02  1.08276439E-01  8.19862360E-02
  1.41341397E-01  1.02526395E-01 -6.23912874E-02 -5.45824288E-02 -2.40857510E-02
  5.32559590E-02  2.43714271E-06  1.93549566E-01  1.45599206E-01  5.67531987E-02
  1.16164381E-06  7.97794113E-02  6.00321428E-02 -5.51043803E-03  5.20637367E-04
 -3.17961867E-03  1.37085745E-08 -1.33016142E-08  7.38067960E-03  9.30797654E-03
 -1.75417331E-02  2.62859857E-01  1.02230310E-01  7.70163476E-02 -2.84509960E-02
  1.16857014E-01  4.86872064E-02  3.66691557E-02 -1.79770137E-03 -1.40682112E-03
  1.07666507E-03 -8.62746655E-03 -6.48449462E-03 -4.94567756E-03  3.08751652E-02
  2.67188007E-02  3.07714546E-02  2.66344308E-02 -1.80806342E-01 -1.35679094E-01
  9.30817174E-03 -1.75417782E-02 -2.62858043E-01  1.02220701E-01  7.70077292E-02
 -2.84536109E-02 -1.16856875E-01  4.86837823E-02  3.66659653E-02 -1.79722565E-03
 -1.40704349E-03  1.07607452E-03  8.62720686E-03  6.48429661E-03 -4.94528926E-03
 -1.80800725E-01 -1.35675064E-01  3.07664135E-02  2.66308353E-02  3.08685755E-02
  2.67141577E-02 -6.23324127E-02 -5.45297862E-02 -2.87626029E-07 -4.47926011E-07
 -1.01127613E-06  2.02100054E-06 -2.39642173E-01  1.94270995E-07  2.27725993E-06
  3.43495662E-06 -1.18910029E-01  2.32733659E-07  1.05506195E-06 -4.23016683E-07
  2.84770467E-07  6.83381854E-08 -6.72591667E-05 -5.18011302E-05  8.30171605E-08
  3.11902211E-03 -2.35776317E-03  7.88428932E-04 -2.51899742E-01 -1.89234721E-01
 -2.97840765E-02  1.23954939E-03 -1.12718265E-01 -8.46793966E-02  1.15431718E-02
 -5.39783039E-03 -9.47347410E-03  2.64730448E-03  1.99407983E-03  8.15013640E-03
 -1.19657045E-01 -9.34654931E-02 -1.19745093E-01 -9.35354603E-02  1.13897490E-01
  1.02202252E-01 -3.11761854E-03  2.35510775E-03  7.78808748E-04  2.51906068E-01
  1.89239492E-01  2.97793222E-02  1.23436268E-03  1.12721132E-01  8.46819261E-02
 -1.15433385E-02  5.39814824E-03  9.47349988E-03  2.64785957E-03  1.99440453E-03
 -8.15020641E-03 -1.13906013E-01 -1.02209571E-01  1.19747672E-01  9.35378450E-02
  1.19658159E-01  9.34668349E-02  1.47952710E-06  1.13138761E-06  2.35802411E-06
  2.17498436E-06 -1.40724215E-08 -1.42021184E-08 -1.36127856E-06  2.45525596E-07
 -3.66756694E-06  2.03986449E-07  8.13753587E-06 -2.47525886E-07 -1.25801807E-06
 -8.58288544E-08 -9.10045848E-08  2.25314773E-07  8.03363690E-03 -1.06937908E-02
  2.90455173E-08 -1.75414322E-06  2.28986243E-06  1.49837891E-05 -1.94653701E-01
  2.59102397E-01  1.30745852E-05  6.45216722E-06 -9.76123333E-02  1.29925994E-01
 -3.69762903E-06 -1.55521236E-02  1.55558602E-02  1.57918904E-03 -2.11095165E-03
  5.19534976E-03  1.71366457E-01  1.40968267E-01 -1.71300801E-01 -1.40909390E-01
 -5.97908363E-05 -5.39963878E-05  1.86569717E-06 -2.47035712E-06  1.65132710E-05
  1.94653411E-01 -2.59098275E-01 -1.37733846E-05  7.11231914E-06  9.76122666E-02
 -1.29924311E-01  3.57528999E-06  1.55520069E-02 -1.55556092E-02  1.57925752E-03
 -2.11102106E-03 -5.19511060E-03  5.96937828E-05  5.40639135E-05  1.71298756E-01
  1.40907520E-01 -1.71363752E-01 -1.40965966E-01 -7.52077729E-07 -8.41099529E-07
 -3.39116311E-04 -3.46861753E-04 -3.13015781E-05  8.72628807E-05  3.32857722E-01
  6.87244137E-04  5.13540378E-04  6.05406952E-05  1.36843604E-01  3.21753308E-04
  2.40670891E-04  5.39969305E-05 -3.51478522E-05 -3.89255671E-05  1.32893053E-02
  9.98523813E-03  8.37279832E-06  2.11734272E-02 -4.52657478E-02 -3.30531212E-01
 -2.92894689E-03 -2.17620124E-03 -8.32235292E-02 -1.63398895E-01  6.65750149E-03
  5.01981651E-03  1.14645202E-02 -2.01532536E-03 -2.04024090E-03  1.37110325E-02
  1.03064355E-02  7.33536813E-05 -1.75988476E-02 -9.95464491E-03 -1.76683880E-02
 -1.00165185E-02  1.79091321E-01  1.86700687E-01 -2.12701114E-02  4.54707854E-02
 -3.30884598E-01  1.86600436E-03  1.38135175E-03  8.36173363E-02 -1.63555233E-01
 -7.18918303E-03 -5.41772616E-03 -1.13827077E-02  1.96214384E-03  1.98027360E-03
  1.36943297E-02  1.02940002E-02 -5.87092397E-05 -1.78623517E-01 -1.86294323E-01
  1.71662668E-02  9.44570059E-03  1.71007557E-02  9.38826185E-03 -3.42151046E-04
 -3.49979710E-04 -1.35191716E-01 -1.38370083E-01 -1.25230071E-02  3.48271093E-02
 -8.34892323E-04  2.74179441E-01  2.04600655E-01  2.46623798E-02 -3.44602911E-04
  1.28758799E-01  9.61675701E-02  2.16084796E-02 -1.40662988E-02 -1.55248046E-02
 -3.31174487E-05 -2.49764779E-05  3.31962568E-03 -1.92938016E-02  4.08399263E-02
  7.13300968E-02 -2.12487914E-01 -1.58711264E-01  7.91230955E-02  3.15773527E-02
 -1.06582639E-01 -7.96969735E-02  1.63628355E-02 -1.06240531E-02 -1.19435412E-02
  3.30061139E-03  2.45294698E-03  2.91359209E-03 -9.92748909E-02 -1.13149264E-01
 -1.00281920E-01 -1.14260097E-01  9.33163470E-02  8.12802309E-02 -1.91879548E-02
  4.06136576E-02 -6.96752165E-02 -2.12494239E-01 -1.58719686E-01  7.87066581E-02
 -3.07571002E-02 -1.06544991E-01 -7.96708796E-02  1.64199466E-02 -1.06340490E-02
 -1.19536340E-02 -3.36921982E-03 -2.50454663E-03  2.91358091E-03  9.42102135E-02
  8.22141047E-02 -1.00366517E-01 -1.14306272E-01 -9.93613732E-02 -1.13197218E-01
 -1.36672439E-01 -1.39881553E-01 -2.00079511E-01 -2.10708046E-01 -5.08651065E-05
  1.45182810E-04  2.33233743E-07 -1.96334237E-01  2.63330600E-01  6.99082233E-05
  1.56777383E-07 -8.64002660E-02  1.16004635E-01  7.84878216E-05  2.51525011E-02
 -2.52644897E-02  8.39029641E-09 -6.77920044E-08 -8.40306523E-03 -7.57102572E-05