Me                                                                      
SP        RB3LYP                                                      6-31G(d)            
Number of atoms                            I                5
Info1-9                                    I   N=           9
          14          14           0           0           0         110
           1          18        -502
Full Title                                 C   N=           1
Me          
Route                                      C   N=           2
# nosymm b3lyp/6-31G*   
Charge                                     I                0
Multiplicity                               I                1
Number of electrons                        I               10
Number of alpha electrons                  I                5
Number of beta electrons                   I                5
Number of basis functions                  I               23
Number of independent functions            I               23
Number of point charges in /Mol/           I                0
Number of translation vectors              I                0
Atomic numbers                             I   N=           5
           1           6           1           1           1
Nuclear charges                            R   N=           5
  1.00000000E+00  6.00000000E+00  1.00000000E+00  1.00000000E+00  1.00000000E+00
Current cartesian coordinates              R   N=          15
  0.00000000E+00  0.00000000E+00  0.00000000E+00  0.00000000E+00  0.00000000E+00
  2.05842198E+00 -9.77404146E-01  1.67611148E+00  2.74482720E+00 -9.63117817E-01
 -1.68436959E+00  2.74482720E+00  1.94016291E+00  8.23920590E-03  2.74486499E+00
Number of symbols in /Mol/                 I                0
Force Field                                I                0
Atom Types                                 C   N=           5
                                                            
Int Atom Types                             I   N=           5
           0           0           0           0           0
MM charges                                 R   N=           5
  0.00000000E+00  0.00000000E+00  0.00000000E+00  0.00000000E+00  0.00000000E+00
Integer atomic weights                     I   N=           5
           1          12           1           1           1
Real atomic weights                        R   N=           5
  1.00782504E+00  1.20000000E+01  1.00782504E+00  1.00782504E+00  1.00782504E+00
Atom fragment info                         I   N=           5
           0           0           0           0           0
Atom residue num                           I   N=           5
           0           0           0           0           0
Nuclear spins                              I   N=           5
           1           0           1           1           1
Nuclear ZEff                               R   N=           5
 -1.00000000E+00 -3.60000000E+00 -1.00000000E+00 -1.00000000E+00 -1.00000000E+00
Nuclear ZNuc                               R   N=           5
  1.00000000E+00  6.00000000E+00  1.00000000E+00  1.00000000E+00  1.00000000E+00
Nuclear QMom                               R   N=           5
  0.00000000E+00  0.00000000E+00  0.00000000E+00  0.00000000E+00  0.00000000E+00
Nuclear GFac                               R   N=           5
  2.79284600E+00  0.00000000E+00  2.79284600E+00  2.79284600E+00  2.79284600E+00
MicOpt                                     I   N=           5
          -1          -1          -1          -1          -1
Number of residues                         I                0
Number of secondary structures             I                0
Number of contracted shells                I               12
Number of primitive shells                 I               27
Pure/Cartesian d shells                    I                1
Pure/Cartesian f shells                    I                0
Highest angular momentum                   I                2
Largest degree of contraction              I                6
Shell types                                I   N=          12
           0           0           0          -1          -1           2
           0           0           0           0           0           0
Number of primitives per shell             I   N=          12
           3           1           6           3           1           1
           3           1           3           1           3           1
Shell to atom map                          I   N=          12
           1           1           2           2           2           2
           3           3           4           4           5           5
Primitive exponents                        R   N=          27
  1.87311370E+01  2.82539436E+00  6.40121692E-01  1.61277759E-01  3.04752488E+03
  4.57369518E+02  1.03948685E+02  2.92101553E+01  9.28666296E+00  3.16392696E+00
  7.86827235E+00  1.88128854E+00  5.44249258E-01  1.68714478E-01  8.00000000E-01
  1.87311370E+01  2.82539436E+00  6.40121692E-01  1.61277759E-01  1.87311370E+01
  2.82539436E+00  6.40121692E-01  1.61277759E-01  1.87311370E+01  2.82539436E+00
  6.40121692E-01  1.61277759E-01
Contraction coefficients                   R   N=          27
  3.34946043E-02  2.34726953E-01  8.13757326E-01  1.00000000E+00  1.83473713E-03
  1.40373228E-02  6.88426223E-02  2.32184443E-01  4.67941348E-01  3.62311985E-01
 -1.19332420E-01 -1.60854152E-01  1.14345644E+00  1.00000000E+00  1.00000000E+00
  3.34946043E-02  2.34726953E-01  8.13757326E-01  1.00000000E+00  3.34946043E-02
  2.34726953E-01  8.13757326E-01  1.00000000E+00  3.34946043E-02  2.34726953E-01
  8.13757326E-01  1.00000000E+00
P(S=P) Contraction coefficients            R   N=          27
  0.00000000E+00  0.00000000E+00  0.00000000E+00  0.00000000E+00  0.00000000E+00
  0.00000000E+00  0.00000000E+00  0.00000000E+00  0.00000000E+00  0.00000000E+00
  6.89990666E-02  3.16423961E-01  7.44308291E-01  1.00000000E+00  0.00000000E+00
  0.00000000E+00  0.00000000E+00  0.00000000E+00  0.00000000E+00  0.00000000E+00
  0.00000000E+00  0.00000000E+00  0.00000000E+00  0.00000000E+00  0.00000000E+00
  0.00000000E+00  0.00000000E+00
Coordinates of each shell                  R   N=          36
  0.00000000E+00  0.00000000E+00  0.00000000E+00  0.00000000E+00  0.00000000E+00
  0.00000000E+00  0.00000000E+00  0.00000000E+00  2.05842198E+00  0.00000000E+00
  0.00000000E+00  2.05842198E+00  0.00000000E+00  0.00000000E+00  2.05842198E+00
  0.00000000E+00  0.00000000E+00  2.05842198E+00 -9.77404146E-01  1.67611148E+00
  2.74482720E+00 -9.77404146E-01  1.67611148E+00  2.74482720E+00 -9.63117817E-01
 -1.68436959E+00  2.74482720E+00 -9.63117817E-01 -1.68436959E+00  2.74482720E+00
  1.94016291E+00  8.23920590E-03  2.74486499E+00  1.94016291E+00  8.23920590E-03
  2.74486499E+00
Num ILSW                                   I              100
ILSW                                       I   N=         100
           0           1           0           0           2           0
           0           0           0           0         402          -1
           5           0           0           0           0           0
           0           0           1           0           0           0
           1           1           0           0           0           0
           0           0      100000           0          -1           0
           0           0           0           0           0           0
           0           0           0           1           0           0
           0 -2000000000           1           0           0           0
           0           0           4          52           0           0
           0           0           5           0           0           0
           0           0           0           0           0           1
           0           0           0           0           0           0
           0           0           0           0           0           0
           0           0           0           0           0           0
           0           0           0           0           0           0
           0           0           0           0
Num RLSW                                   I               52
RLSW                                       R   N=          52
  8.00000000E-01  7.20000000E-01  1.00000000E+00  8.10000000E-01  2.00000000E-01
  0.00000000E+00  0.00000000E+00  1.00000000E+00  0.00000000E+00  0.00000000E+00
  0.00000000E+00  0.00000000E+00  1.00000000E+00  0.00000000E+00  0.00000000E+00
  0.00000000E+00  0.00000000E+00  1.00000000E+00  0.00000000E+00  0.00000000E+00
  0.00000000E+00  0.00000000E+00  1.00000000E+00  0.00000000E+00  0.00000000E+00
  0.00000000E+00  0.00000000E+00  1.00000000E+00  0.00000000E+00  0.00000000E+00
  0.00000000E+00  0.00000000E+00  1.00000000E+00  0.00000000E+00  0.00000000E+00
  0.00000000E+00  0.00000000E+00  0.00000000E+00  1.00000000E+00  1.00000000E+00
  0.00000000E+00  1.00000000E+00  0.00000000E+00  0.00000000E+00  0.00000000E+00
  0.00000000E+00  0.00000000E+00  0.00000000E+00  0.00000000E+00  0.00000000E+00
  0.00000000E+00  0.00000000E+00
MxBond                                     I                4
NBond                                      I   N=           5
           1           4           1           1           1
IBond                                      I   N=          20
           2           0           0           0           1           3
           4           5           2           0           0           0
           2           0           0           0           2           0
           0           0
RBond                                      R   N=          20
  1.00000000E+00  0.00000000E+00  0.00000000E+00  0.00000000E+00  1.00000000E+00
  1.00000000E+00  1.00000000E+00  1.00000000E+00  1.00000000E+00  0.00000000E+00
  0.00000000E+00  0.00000000E+00  1.00000000E+00  0.00000000E+00  0.00000000E+00
  0.00000000E+00  1.00000000E+00  0.00000000E+00  0.00000000E+00  0.00000000E+00
Virial Ratio                               R      2.010625713705526E+00
SCF Energy                                 R     -4.051833969873369E+01
Total Energy                               R     -4.051833969873369E+01
RMS Density                                R      5.124476653052535E-09
Job Status                                 I                1
Nuclear derivative order                   I                0
External E-field                           R   N=          35
  0.00000000E+00  0.00000000E+00  0.00000000E+00  0.00000000E+00  0.00000000E+00
  0.00000000E+00  0.00000000E+00  0.00000000E+00  0.00000000E+00  0.00000000E+00
  0.00000000E+00  0.00000000E+00  0.00000000E+00  0.00000000E+00  0.00000000E+00
  0.00000000E+00  0.00000000E+00  0.00000000E+00  0.00000000E+00  0.00000000E+00
  0.00000000E+00  0.00000000E+00  0.00000000E+00  0.00000000E+00  0.00000000E+00
  0.00000000E+00  0.00000000E+00  0.00000000E+00  0.00000000E+00  0.00000000E+00
  0.00000000E+00  0.00000000E+00  0.00000000E+00  0.00000000E+00  0.00000000E+00
IOpCl                                      I                0
IROHF                                      I                0
Alpha Orbital Energies                     R   N=          23
 -1.01652156E+01 -6.91560246E-01 -3.89774510E-01 -3.89760269E-01 -3.89732471E-01
  1.18922978E-01  1.77812848E-01  1.77828094E-01  1.77845447E-01  5.31994780E-01
  5.31997223E-01  5.32076700E-01  9.00868548E-01  9.00890709E-01  9.00934027E-01
  9.53642567E-01  1.10109786E+00  1.65569497E+00  1.65570115E+00  2.24900128E+00
  2.24928933E+00  2.24929447E+00  4.18218347E+00
Alpha MO coefficients                      R   N=         529
 -1.59811204E-04  2.62127907E-03  9.92796621E-01  4.98447043E-02 -3.56660512E-08
 -3.05210513E-10  5.25105574E-07 -1.47307907E-02  2.78720177E-07  1.01169970E-08
 -1.86291608E-06 -9.35764866E-03 -9.35777067E-03 -9.35776573E-03 -3.47312886E-09
  4.03253437E-08  2.62374808E-09 -1.59733015E-04  2.62289284E-03 -1.59725481E-04
  2.62288416E-03 -1.59847067E-04  2.62290728E-03  1.35045022E-01  3.85165167E-02
 -1.98589532E-01  3.80331074E-01 -2.32722814E-06  2.06684272E-07  9.14373403E-05
  3.59988223E-01 -4.12902976E-06 -1.46775803E-07  2.85225855E-05  1.55124110E-03
  1.54605098E-03  1.55147970E-03 -1.28467941E-07 -1.29167677E-07  3.60447329E-09
  1.35109011E-01  3.85229012E-02  1.35108187E-01  3.85226855E-02  1.35116389E-01
  3.85255302E-02 -2.93459874E-01 -2.46761434E-01  3.30143213E-05 -6.49191100E-05
  1.75126179E-02  4.36963978E-04  4.46634095E-01 -1.10813659E-04  8.39475511E-03
  2.09379777E-04  2.14166527E-01  1.35126391E-02  1.20893743E-02 -2.55996579E-02
 -1.00638141E-05  5.80369386E-04  1.44943847E-05  9.25743957E-02  7.78273707E-02
  9.21850331E-02  7.75000855E-02  1.08663617E-01  9.13539182E-02  1.15001267E-02
  9.67131234E-03 -5.44129923E-06  1.28758737E-05  4.46572162E-01 -9.35546137E-03
 -1.74940174E-02  7.09444091E-06  2.14110876E-01 -4.48544052E-03 -8.39034537E-03
  1.75927952E-02 -1.85981119E-02  1.00354477E-03  7.04421258E-04  1.47998233E-02
 -3.10033893E-04 -1.48163964E-01 -1.24591622E-01 -1.36090820E-01 -1.14439335E-01
  2.72744352E-01  2.29349540E-01  5.27621340E-04  4.43725546E-04 -2.74645859E-07
  7.21513025E-07  9.33092424E-03  4.46910341E-01 -8.02570774E-04  5.09970335E-10
  4.47417844E-03  2.14290125E-01 -3.85036830E-04  5.86192953E-04 -6.32356737E-04
  4.60296608E-05 -2.09150136E-02  3.09201286E-04  1.48086435E-02  2.36052105E-01
  1.98518271E-01 -2.43360675E-01 -2.04664985E-01  6.77990845E-03  5.70173620E-03
 -1.81834751E-02 -9.97798584E-01 -1.62655376E-01  1.94638781E-01 -3.29889648E-05
 -2.62433202E-06 -1.57021789E-04  2.62894071E+00 -1.16521967E-04 -7.93935555E-06
 -2.05753231E-04 -1.27316079E-02 -1.27332846E-02 -1.27519830E-02 -8.42951091E-08
  1.06273631E-07  3.90151998E-08 -1.80454959E-02 -9.97182069E-01 -1.80464754E-02
 -9.97190868E-01 -1.80409393E-02 -9.97098377E-01  1.26075495E-01  1.88319431E+00
 -5.72287369E-05  1.59727892E-05 -1.61023075E-02 -4.15593868E-03  3.82593406E-01
  1.74541910E-03 -5.74474205E-02 -1.48311553E-02  1.36558693E+00 -9.20193161E-03
 -1.03650573E-02  1.95491725E-02 -1.64796278E-04  4.74668886E-04  1.22640908E-04
 -4.33612971E-02 -6.49526313E-01 -4.55610250E-02 -6.82387281E-01 -3.69581345E-02
 -5.53832487E-01  1.49980571E-03  2.24002404E-02 -1.73630375E-06  1.59614039E-06
  9.36330060E-03  3.82762144E-01  4.55200370E-03  4.49489546E-05  3.34206582E-02
  1.36618629E+00  1.62506455E-02 -6.31353653E-04  3.98368593E-04  2.32513843E-04
  1.59699725E-02 -2.76304270E-04 -1.12947163E-02 -1.01790132E-01 -1.52087051E+00
  1.04206531E-01  1.55692449E+00 -3.91449618E-03 -5.85146902E-02 -5.26265350E-03
 -7.86262454E-02  1.20568228E-05 -1.61586897E-05 -3.82451454E-01  9.54568755E-03
 -1.59852286E-02 -2.75291118E-04 -1.36525413E+00  3.40754514E-02 -5.70895885E-02
  1.42236147E-02 -1.34045221E-02 -8.16146833E-04  6.01740110E-04  1.12858996E-02
 -2.81684912E-04 -6.06481729E-02 -9.06463837E-01 -5.46368855E-02 -8.16615464E-01
  1.20555233E-01  1.80204741E+00  1.23246086E-03  5.65211225E-04 -1.54843509E-07
 -9.26824721E-07  2.57312175E-02 -7.60538596E-01 -1.89404719E-03  5.87170848E-06
 -4.91821744E-02  1.45320402E+00  3.62047182E-03  1.38222788E-03 -1.63413176E-03
  2.52145980E-04  8.26639826E-02  1.97852731E-03 -5.84577416E-02 -4.11554586E-01
 -1.88683060E-01  3.96924846E-01  1.81958614E-01  1.33961634E-02  6.15389904E-03
  3.24379125E-02  1.48964010E-02 -3.81878184E-06 -4.44574361E-05 -7.58886127E-01
 -2.55540057E-02 -4.98886382E-02  1.41776984E-04  1.45034101E+00  4.88214212E-02
  9.53521003E-02 -7.47459576E-02  6.81095331E-02  6.63437674E-03  1.72514868E-03
 -5.83457024E-02 -1.96394483E-03  2.10185088E-01  9.64829298E-02  2.33916664E-01
  1.07351692E-01 -4.76615759E-01 -2.18782470E-01  4.94290415E-01  2.27062408E-01
 -1.09489417E-05  6.96518287E-05  4.98016235E-02  3.57659245E-03 -7.59433646E-01
  4.31877804E-04 -9.51819082E-02 -6.83348482E-03  1.45156197E+00 -4.58435946E-02
 -5.52123733E-02  1.01122267E-01 -3.19422950E-04  3.82877647E-03  2.74938038E-04
 -1.78179041E-01 -8.21794830E-02 -1.81754097E-01 -8.38190948E-02 -1.34134584E-01
 -6.19382694E-02 -8.86776093E-01  1.70735657E+00 -2.41194483E-04  1.57609525E-03
  6.40698068E-02  1.94475520E-02 -8.52427431E-01 -1.75693679E-03 -9.20314593E-02
 -2.79348627E-02  1.22444922E+00  9.13598774E-02  1.13142561E-01 -2.04421803E-01
  3.64701454E-03 -8.87483507E-03 -2.69345581E-03  3.08741722E-01 -5.96840663E-01
  3.41256575E-01 -6.59519291E-01  2.30813930E-01 -4.46643462E-01 -2.17705404E-02
  4.19142825E-02 -6.94064594E-06  6.02172134E-05 -1.89571484E-02 -8.54654041E-01
 -2.09216526E-02 -8.40738695E-05  2.72301386E-02  1.22762893E+00  3.00520823E-02
  7.57216941E-03 -2.55224251E-03 -5.01578279E-03 -1.67274609E-01  2.62567464E-03
  1.18366449E-01  7.20675725E-01 -1.38932967E+00 -7.28398724E-01  1.40412736E+00
  2.93124301E-02 -5.65519793E-02  6.61731696E-02 -1.27464446E-01  1.91444220E-05
 -2.98780059E-04  8.52551597E-01 -2.04678574E-02  6.36120909E-02  5.31080734E-04
 -1.22458439E+00  2.93995212E-02 -9.13710707E-02 -1.52120169E-01  1.36855998E-01
  1.52364984E-02 -6.13493934E-03 -1.18103119E-01  2.83518369E-03  4.15826766E-01
 -8.01502995E-01  3.74977301E-01 -7.22755982E-01 -8.56392975E-01  1.65097213E+00
  6.50184558E-01 -5.35583408E-01  1.00425852E-01 -8.12789935E-01 -8.56787211E-05
 -1.31677418E-05 -2.07743020E-03  1.11178412E+00  1.81180352E-04  2.04406567E-05
  2.44739577E-03 -2.24237630E-02 -2.24834401E-02 -2.32119310E-02 -3.09913862E-06
 -5.41746321E-06  9.86694714E-07  6.53012525E-01 -5.40270503E-01  6.52994619E-01
 -5.40230389E-01  6.53074207E-01 -5.40522316E-01 -2.92331605E-01 -1.04278181E+00
 -1.00388670E-01 -2.06006771E+00 -3.50980678E-06 -1.66343460E-07  1.23210540E-05
  5.48794991E+00 -1.24212057E-04 -3.80337373E-06  1.00511043E-03 -1.13557096E-01
 -1.13552202E-01 -1.13487100E-01  3.99398262E-08  4.59278346E-05  2.38643799E-06
 -2.92612151E-01 -1.04352276E+00 -2.92620630E-01 -1.04351075E+00 -2.92471181E-01
 -1.04364380E+00  4.36788931E-05  5.20692361E-05  1.03227035E-05  9.83962896E-05
 -9.31517969E-06  1.35343848E-07 -2.03964919E-06 -3.14875131E-04  8.31087662E-06
 -1.62026578E-07 -2.80216355E-06 -4.99984102E-01  5.00013517E-01 -2.19318413E-05
 -1.84358065E-02  8.16139395E-01 -1.56480365E-02  5.71273594E-05  5.23804342E-05
  5.67784910E-05  5.22368563E-05  4.70641337E-05  4.53352069E-05  2.99546934E-06
  3.69024396E-06  7.24038873E-07  6.90469406E-06 -2.78436376E-07 -1.22261185E-05
 -2.02402578E-07 -2.20903128E-05  8.24267908E-08  4.46080020E-06 -2.02664612E-07
 -1.59623277E-02  1.59643604E-02 -1.51048698E-06  5.77228176E-01  1.56490163E-02
  8.16224828E-01  6.66146781E-06 -2.31728273E-06  7.85262881E-07  9.49245237E-06
  3.91654443E-06  3.30715806E-06 -8.30822301E-01  9.26114163E-02  1.44507415E-05
  1.24072949E-05  7.11428741E-03  6.14150086E-04 -1.55536831E-01 -4.47317326E-04
  1.97917534E-02  1.70786305E-03 -4.32462432E-01 -5.28926779E-01 -6.02076541E-01
  1.13098985E+00 -3.10753498E-03  2.98921570E-02  2.58079673E-03  2.92377980E-01
 -3.24337443E-02  2.97473602E-01 -3.30025392E-02  2.41161152E-01 -2.67289221E-02
 -7.96379162E-03  8.88901851E-04  1.32594094E-06 -8.14857547E-06 -1.92859323E-02
 -1.54674682E-01 -1.49527662E-03 -9.75957912E-06 -5.35200142E-02 -4.29194245E-01
 -4.14774660E-03 -1.14560622E-01  1.03721425E-01  1.08427968E-02  9.15709505E-01
 -8.09088164E-02 -6.48883118E-01  6.26181515E-01 -6.99743604E-02 -7.21194204E-01
  8.05826981E-02  1.03005566E-01 -1.14972428E-02  3.72904456E-02 -4.16049604E-03
 -6.67103578E-06  4.37022168E-05  1.54553194E-01 -1.93318106E-02  7.00376926E-03
  3.99955635E-05  4.28891567E-01 -5.36415014E-02  1.94249900E-02  8.17512446E-01
 -7.66762908E-01 -5.07691007E-02  1.26305258E-01  6.48364457E-01 -8.10971985E-02
  4.63197499E-01 -5.17068180E-02  2.88992074E-01 -3.22450622E-02 -7.89629630E-01
  8.81242805E-02  1.29589362E-01 -4.98885453E-01 -4.88546466E-01  2.93438321E+00
  3.11089246E-07 -2.88521616E-07 -8.06383193E-05  2.46260487E+00 -4.38481534E-05
 -1.59757191E-06  2.87577653E-04 -1.88098312E+00 -1.88095610E+00 -1.88094359E+00
  8.20371296E-07 -1.28796727E-05 -8.15726197E-07  1.29641816E-01 -4.99151743E-01
  1.29638545E-01 -4.99148934E-01  1.29685093E-01 -4.99173607E-01
Orthonormal basis                          R   N=         529
  7.15591575E-02  1.21503677E-01  3.21894740E-02  1.54531147E-01 -1.49296833E-06
 -3.28946583E-08  1.53719531E-05  1.74897999E-01 -3.14307109E-06 -1.12626180E-07
  2.10292038E-05  1.19527682E-01  1.19525846E-01  1.19527498E-01 -7.47863679E-08
  1.40552667E-08  7.61188974E-09  7.15855326E-02  1.21530916E-01  7.15852550E-02
  1.21530711E-01  7.15876443E-02  1.21531960E-01  5.76260595E-06  4.64576735E-06
  1.03982393E-07  2.97866456E-07 -3.68868884E-03  2.83081750E-01 -5.68705346E-06
  4.26488287E-08 -4.64620759E-03  3.56577972E-01 -7.30001686E-06 -1.10711343E-05
  1.03334860E-05  1.36183340E-06 -8.39277783E-02 -7.73663202E-04  5.93686278E-02
  2.36610922E-01  1.88208139E-01 -2.34229874E-01 -1.86313968E-01 -2.38745220E-03
 -1.90012151E-03  3.79885884E-04  3.07971352E-04  2.95710601E-06  9.44018316E-06
  2.87135422E-01  3.73969246E-03 -3.78380369E-04  4.43945445E-06  3.61299338E-01
  4.70578468E-03 -4.78286411E-04  3.97896495E-02 -3.98523807E-02  8.29796893E-05
 -2.36888482E-05  5.96874702E-02  7.77316885E-04 -1.33342613E-01 -1.07420578E-01
 -1.37455822E-01 -1.10732636E-01  2.70402217E-01  2.17821253E-01 -2.86210182E-01
 -2.32110237E-01 -8.92478007E-06 -3.76060904E-05  3.80002233E-04  1.07471524E-05
  2.89172008E-01 -4.20773166E-05  4.75774534E-04  1.33521191E-05  3.63707320E-01
  2.82319943E-02  2.81191040E-02 -5.64356505E-02 -2.03677207E-06  8.04604232E-05
  2.30647120E-06  9.52374072E-02  7.72184026E-02  9.52219472E-02  7.72063665E-02
  9.57763326E-02  7.76490622E-02 -3.67691001E-07 -3.49209010E-07  1.23686237E-06
  9.39779553E-07 -3.50015974E-03  2.74664050E-01  6.43964147E-07  3.80053153E-07
 -3.00982818E-03  2.36137746E-01  7.61705993E-07 -9.24072191E-07  1.61316790E-06
  8.82197974E-07  6.73980089E-01  6.07849928E-03 -4.76760110E-01 -1.93988822E-01
  3.70052398E-02  1.92093501E-01 -3.66435584E-02  1.89225684E-03 -3.61962061E-04
  9.97553641E-06  7.48002231E-06 -3.35983060E-05 -1.75953935E-05 -2.25792480E-01
 -2.87890836E-03 -5.57967072E-06 -4.23297415E-06 -1.81962375E-01 -2.31948794E-03
 -7.46183627E-06  1.07196558E-01 -1.07214704E-01 -8.43463112E-06 -2.08376344E-06
  8.83917760E-01  1.12646378E-02 -9.46660645E-02  1.31202066E-02 -9.74948386E-02
  1.35109550E-02  1.92196512E-01 -2.66144970E-02 -9.86119194E-02 -9.88511150E-02
  9.32987856E-01  2.01163291E-01 -2.38122497E-05 -1.97337243E-06 -1.45296736E-04
 -1.33221204E-02 -9.43578199E-06 -8.87638776E-07 -8.93320917E-05  4.87029496E-02
  4.87344118E-02  4.84207825E-02  2.91422275E-05  4.37381943E-05  4.37874699E-05
 -9.83718486E-02 -9.88177635E-02 -9.83729086E-02 -9.88177074E-02 -9.83722549E-02
 -9.88209624E-02  5.11946441E-06  4.78268681E-06 -4.96118662E-05 -9.53114315E-06
  1.04500658E-09  8.65639783E-11  7.97071446E-07  8.07316348E-07  3.95142331E-10
  3.79784626E-11  5.96411998E-07 -2.12810574E-06 -2.12952493E-06 -1.14264042E-06
  5.77530302E-01 -1.04015966E-02  8.16302980E-01  4.12960466E-06  4.87354984E-06
  4.12964862E-06  4.87354668E-06  4.12967165E-06  4.87370380E-06  4.13296314E-01
  1.70668931E-02  7.60481753E-03 -1.02168514E-02 -9.48843023E-06 -1.63334326E-06
  4.45240472E-01  2.02797509E-03  3.11012962E-06 -2.30165701E-07  2.44256501E-01
 -3.47870053E-01 -3.47781971E-01  6.72968236E-01 -1.31121573E-06  1.70500648E-05
 -7.00068417E-07 -1.33436172E-01  1.88273773E-03 -1.33436917E-01  1.88216029E-03
 -1.33451234E-01  1.88822803E-03 -1.45364739E-01 -2.77564333E-01 -3.48466786E-01
  4.97309733E-01 -2.30861379E-05 -4.02457397E-06  9.29674242E-03 -1.01649873E-01
  1.17938467E-05 -5.68300005E-07  5.04950235E-03  3.58673608E-01  3.58861781E-01
  3.80156248E-01 -1.21243548E-06  5.31402096E-05 -1.45476437E-06 -1.56594037E-01
 -2.77837555E-01 -1.56595250E-01 -2.77838267E-01 -1.56644920E-01 -2.77836046E-01
  2.08736980E-05 -4.70041069E-05 -1.33587094E-05  6.78924787E-05 -3.76180803E-01
 -4.80060661E-03  1.63271046E-05 -3.42128863E-05 -1.51530502E-01 -1.93238890E-03
 -1.73222974E-06  6.48694302E-01 -6.48651587E-01  9.95538204E-05  6.34907695E-06
 -3.81674142E-01 -4.86790657E-03 -1.48964213E-01 -1.69227086E-02 -1.53420217E-01
 -1.74293949E-02  3.02390837E-01  3.41853268E-02  8.70906692E-07 -8.24143559E-06
  3.28996306E-07  2.30915385E-06 -1.39010732E-02  1.08986992E+00 -1.29380612E-05
 -1.58218950E-06  5.04745200E-03 -3.95742467E-01  5.72516475E-06  2.97048680E-06
 -6.09158972E-06  7.79239908E-06 -2.20735990E-01 -1.99150648E-03  1.56144240E-01
 -1.16898661E-01 -3.76845155E-01  1.15759882E-01  3.73163544E-01  1.14229945E-03
  3.68250926E-03  1.54866917E-05 -5.62450139E-04  6.41313636E-06  4.25632892E-05
  1.03186266E+00  1.31589945E-02 -1.10441719E-03 -3.58753781E-05 -4.67952803E-01
 -5.96684942E-03  5.13624845E-04  2.95259444E-01 -2.95611325E-01  4.37725386E-04
 -2.64662079E-06  8.35130181E-02  1.06602247E-03  1.21809114E-02  2.19745365E-01
  1.25480571E-02  2.26308735E-01 -2.46558966E-02 -4.45631743E-01  1.82626719E-03
  4.79216101E-01  4.34724389E-05  1.88511048E-05  1.12054943E-03  2.87601998E-05
  1.02773071E+00 -3.83304582E-05 -5.18540016E-04 -1.27511118E-05 -4.86601110E-01
  1.70269727E-01  1.69627044E-01 -3.39832187E-01 -2.57273008E-06  8.77838593E-05
  2.75444379E-06 -3.88761872E-04 -1.59615442E-01 -3.86356954E-04 -1.59597200E-01
 -4.20394693E-04 -1.60353658E-01  6.93164267E-01 -3.52855206E-01  1.34039848E-01
 -1.73970618E-02 -2.84130033E-05 -3.47073385E-06 -4.82900614E-04 -2.78499103E-01
  7.98384143E-05  5.18816313E-06  2.25121733E-04  5.61285657E-02  5.62216326E-02
  5.58239834E-02  1.39478537E-06  2.97311454E-05  1.50117222E-06  6.93047145E-01
 -3.52684103E-01  6.93055114E-01 -3.52690151E-01  6.92923593E-01 -3.52602598E-01
  1.49224191E-05 -5.02667808E-06  4.98841478E-07 -1.74964704E-06  9.40828160E-04
 -7.35429830E-02 -6.52088332E-07 -1.95198422E-06  9.78488885E-03 -7.69643832E-01
  6.59004512E-06 -2.22615246E-05  2.94345548E-05 -8.64132944E-06  6.08501076E-01
  5.47646172E-03 -4.30441705E-01  1.02131869E+00 -2.86107637E-01 -1.01138395E+00
  2.83324853E-01 -9.93635704E-03  2.78456700E-03  7.52911801E-04 -2.21778408E-04
  8.55273846E-06 -2.16827655E-05 -9.94028278E-02 -1.25833021E-03  3.75578929E-05
 -4.24526239E-05 -7.21012684E-01 -9.16705117E-03  3.91991195E-04 -6.22950829E-01
  6.23453408E-01 -5.13159243E-04 -2.18042955E-05 -4.11384803E-01 -5.22657136E-03
 -5.65980060E-01  1.54953641E-01 -5.82807343E-01  1.59559076E-01  1.14824877E+00
 -3.14349033E-01  1.20895955E+00 -3.29156564E-01 -2.44165392E-05  2.10493568E-04
  7.77332739E-05  3.19414801E-06  1.08903775E-01 -4.33241184E-05  4.00362608E-04
  1.22305223E-05  7.02378357E-01  4.29633372E-01  4.28818399E-01 -8.58228006E-01
 -8.02907716E-06  2.43012857E-04  7.69688052E-06 -4.02959917E-01  1.09693928E-01
 -4.02928485E-01  1.09687161E-01 -4.03962277E-01  1.09945282E-01  6.06365647E-04
 -4.44052369E-03  4.84917254E-07 -6.30724634E-07  4.80411410E-04 -5.76214932E-01
  1.02485925E-03 -2.82154440E-07 -1.78593068E-03  2.18901397E+00 -3.90392251E-03
  9.61154088E-04 -1.18866268E-03  2.30488687E-04 -9.87253003E-02 -4.78015412E-05
  6.98470506E-02  2.81178535E-01 -2.03078414E+00 -2.82662713E-01  2.04179829E+00
  8.81515186E-04 -6.57338627E-03 -4.21335187E-02  3.08808327E-01 -6.85369571E-06
  1.07192085E-04  5.71173526E-01  3.33861819E-04 -7.12545554E-02 -1.51677022E-04
 -2.17394581E+00 -1.31041721E-03  2.71459640E-01 -8.15376727E-02  9.74323284E-02
 -1.59436766E-02 -1.19185185E-03 -7.02267032E-02 -5.16456037E-05  1.74979496E-01
 -1.27666225E+00  1.72895930E-01 -1.26188427E+00 -3.05845159E-01  2.22988982E+00
 -3.37431944E-01  2.47386664E+00  7.42546718E-06  6.11698018E-04 -7.12846452E-02
 -1.07582335E-03 -5.70896093E-01 -9.84707057E-04  2.71321915E-01  4.09288367E-03
  2.17499055E+00  7.49342423E-02  5.25852522E-02 -1.27517398E-01 -2.85284337E-05
  8.76302081E-03  1.31656095E-04  9.27959064E-02 -6.81401904E-01  9.20425341E-02
 -6.75928131E-01  1.52328189E-01 -1.11555517E+00  1.57868884E-01  9.12169847E-02
 -4.26773908E-01  3.62714507E+00 -1.30293891E-05 -6.42782545E-07  4.15080303E-05
 -3.06187823E-01  4.11439097E-05  6.29135552E-07 -5.04597980E-04 -1.62586622E+00
 -1.62583674E+00 -1.62577517E+00  9.03777474E-07 -1.41360072E-06 -2.63220312E-07
  1.57929262E-01  9.18274100E-02  1.57927796E-01  9.18272740E-02  1.57946499E-01
  9.17875572E-02 -5.22282984E-02 -1.54460213E+00 -3.42474180E-01 -4.81541272E-01
  2.35223257E-05  5.69019973E-07 -2.30129991E-04  6.65182744E+00 -1.52935183E-04
 -2.78886938E-06  1.73702251E-03 -8.68644021E-01 -8.68665570E-01 -8.68773830E-01
 -7.25714661E-07 -1.47163955E-05 -5.68378227E-07 -5.23212277E-02 -1.54640025E+00
 -5.23248508E-02 -1.54638821E+00 -5.22630279E-02 -1.54644864E+00
Total SCF Density                          R   N=         276
  2.08976825E-01  1.55454159E-01  1.24950659E-01 -5.39738779E-02 -1.01095589E-02
  2.05016587E+00  1.02746104E-01  2.95916588E-02 -5.20882368E-02  2.94272450E-01
  1.98945794E-06  3.10160548E-06 -2.85514851E-06  7.46588131E-06  3.99640908E-01
  1.39193800E-08  1.60964528E-08 -1.97516971E-07  5.04435636E-07 -2.99392861E-07
  3.99633138E-01 -2.62516888E-01 -2.20756186E-01 -5.59288697E-06  1.11634355E-05
  3.80428726E-06  3.00911096E-07  3.99577417E-01  9.72991452E-02  2.77085840E-02
 -1.72229151E-01  2.72360925E-01  7.80595937E-07 -8.03140692E-08 -3.34172776E-05
  2.59617058E-01  1.16289809E-06  2.11670482E-06  4.15143047E-07  1.31721431E-06
  1.91609438E-01  2.37573286E-07  2.66493058E-07 -1.80352430E-06  9.18679149E-02
  3.30454378E-08  6.68514113E-08  2.33150367E-08  5.58945630E-08  2.37677026E-07
  1.91621056E-01  3.03359714E-09 -2.15802285E-07  2.96700620E-07  9.18808414E-02
 -1.25884246E-01 -1.05856524E-01 -7.94922136E-07 -6.51328411E-06  2.58114376E-07
  3.34856156E-09  1.91602331E-01 -2.69937288E-05 -6.22989785E-07 -6.61199959E-08