PbCl3                                                                   
SP        RB3LYP                                                      def2TZVP            
Number of atoms                            I                5
Info1-9                                    I   N=           9
          14          14           0           0           0         110
           1          18        -502
Full Title                                 C   N=           1
PbCl3       
Route                                      C   N=           2
# nosymm b3lyp/def2tzvp 
Charge                                     I                0
Multiplicity                               I                1
Number of electrons                        I               74
Number of alpha electrons                  I               37
Number of beta electrons                   I               37
Number of basis functions                  I              167
Number of independent functions            I              167
Number of point charges in /Mol/           I                0
Number of translation vectors              I                0
Atomic numbers                             I   N=           5
           1          82          17          17          17
Nuclear charges                            R   N=           5
  1.00000000E+00  2.20000000E+01  1.70000000E+01  1.70000000E+01  1.70000000E+01
Current cartesian coordinates              R   N=          15
  0.00000000E+00  0.00000000E+00  0.00000000E+00  0.00000000E+00  0.00000000E+00
  3.30813566E+00  3.62647892E+00  2.14718241E+00  5.06234952E+00  4.67707216E-02
 -4.21276645E+00  5.06554316E+00 -3.67177565E+00  2.06702023E+00  5.06420145E+00
Number of symbols in /Mol/                 I                0
Force Field                                I                0
Atom Types                                 C   N=           5
                                                            
Int Atom Types                             I   N=           5
           0           0           0           0           0
MM charges                                 R   N=           5
  0.00000000E+00  0.00000000E+00  0.00000000E+00  0.00000000E+00  0.00000000E+00
Integer atomic weights                     I   N=           5
           1         208          35          35          35
Real atomic weights                        R   N=           5
  1.00782504E+00  2.07976600E+02  3.49688527E+01  3.49688527E+01  3.49688527E+01
Atom fragment info                         I   N=           5
           0           0           0           0           0
Atom residue num                           I   N=           5
           0           0           0           0           0
Nuclear spins                              I   N=           5
           1           0           3           3           3
Nuclear ZEff                               R   N=           5
 -1.00000000E+00 -0.00000000E+00 -1.42400000E+01 -1.42400000E+01 -1.42400000E+01
Nuclear ZNuc                               R   N=           5
  1.00000000E+00  8.20000000E+01  1.70000000E+01  1.70000000E+01  1.70000000E+01
Nuclear QMom                               R   N=           5
  0.00000000E+00  0.00000000E+00 -8.16500000E+00 -8.16500000E+00 -8.16500000E+00
Nuclear GFac                               R   N=           5
  2.79284600E+00  0.00000000E+00  8.21874000E-01  8.21874000E-01  8.21874000E-01
MicOpt                                     I   N=           5
          -1          -1          -1          -1          -1
Number of residues                         I                0
Number of secondary structures             I                0
Number of contracted shells                I               59
Number of primitive shells                 I              116
Pure/Cartesian d shells                    I                0
Pure/Cartesian f shells                    I                0
Highest angular momentum                   I                3
Largest degree of contraction              I                7
Shell types                                I   N=          59
           0           0           0           1           0           0
           0           0           0           0           1           1
           1           1           1          -2          -2          -2
          -3          -3           0           0           0           0
           0           1           1           1           1           1
          -2          -2          -3           0           0           0
           0           0           1           1           1           1
           1          -2          -2          -3           0           0
           0           0           0           1           1           1
           1           1          -2          -2          -3
Number of primitives per shell             I   N=          59
           3           1           1           1           4           2
           1           1           1           1           3           3
           1           1           1           6           1           1
           1           1           7           3           2           1
           1           5           1           1           1           1
           2           1           1           7           3           2
           1           1           5           1           1           1
           1           2           1           1           7           3
           2           1           1           5           1           1
           1           1           2           1           1
Shell to atom map                          I   N=          59
           1           1           1           1           2           2
           2           2           2           2           2           2
           2           2           2           2           2           2
           2           2           3           3           3           3
           3           3           3           3           3           3
           3           3           3           4           4           4
           4           4           4           4           4           4
           4           4           4           4           5           5
           5           5           5           5           5           5
           5           5           5           5           5
Primitive exponents                        R   N=         116
  3.40613410E+01  5.12357460E+00  1.16466260E+00  3.27230410E-01  1.03072410E-01
  8.00000000E-01  5.91611244E+02  4.67572326E+01  2.07464627E+01  1.46107964E+01
  2.02226376E+01  6.47673249E+00  1.66006009E+00  8.04316550E-01  2.26270390E-01
  8.40145307E-02  1.51891021E+01  1.46931444E+01  6.87058900E+00  2.20214261E+00
  1.22091251E+00  6.33675598E-01  2.82028371E-01  1.13333757E-01  4.39487074E-02
  6.13153696E+01  1.23721958E+01  6.92549450E+00  2.33195399E+00  1.21087300E+00
  6.00904785E-01  2.81358698E-01  1.15000000E-01  2.89620000E-01  1.00000000E+00
  6.95079909E+04  1.04261569E+04  2.37323341E+03  6.71564201E+02  2.18419998E+02
  7.75722497E+01  2.88888153E+01  1.27105272E+02  3.93395830E+01  7.67406800E+00
  3.87456276E+00  1.83858326E+00  5.02290575E-01  1.79627234E-01  6.66504233E+02
  1.57642417E+02  5.02625210E+01  1.85360781E+01  7.29405328E+00  2.94332490E+00
  1.04049708E+00  3.84564151E-01  1.30696427E-01  4.61000000E+00  1.01100000E+00
  3.39000000E-01  7.06000000E-01  6.95079909E+04  1.04261569E+04  2.37323341E+03
  6.71564201E+02  2.18419998E+02  7.75722497E+01  2.88888153E+01  1.27105272E+02
  3.93395830E+01  7.67406800E+00  3.87456276E+00  1.83858326E+00  5.02290575E-01
  1.79627234E-01  6.66504233E+02  1.57642417E+02  5.02625210E+01  1.85360781E+01
  7.29405328E+00  2.94332490E+00  1.04049708E+00  3.84564151E-01  1.30696427E-01
  4.61000000E+00  1.01100000E+00  3.39000000E-01  7.06000000E-01  6.95079909E+04
  1.04261569E+04  2.37323341E+03  6.71564201E+02  2.18419998E+02  7.75722497E+01
  2.88888153E+01  1.27105272E+02  3.93395830E+01  7.67406800E+00  3.87456276E+00
  1.83858326E+00  5.02290575E-01  1.79627234E-01  6.66504233E+02  1.57642417E+02
  5.02625210E+01  1.85360781E+01  7.29405328E+00  2.94332490E+00  1.04049708E+00
  3.84564151E-01  1.30696427E-01  4.61000000E+00  1.01100000E+00  3.39000000E-01
  7.06000000E-01
Contraction coefficients                   R   N=         116
  2.54393072E-02  1.90085949E-01  8.52441130E-01  1.00000000E+00  1.00000000E+00
  1.00000000E+00  1.07930438E-03  2.77853403E-02 -1.04260044E+00  1.97566782E+00
 -9.13815030E-02  1.07098908E+00  1.00000000E+00  1.00000000E+00  1.00000000E+00
  1.00000000E+00  2.17917219E+00 -2.55013453E+00  1.32539423E+00  4.02196502E-01
  4.60849047E-01  1.93789135E-01  1.00000000E+00  1.00000000E+00  1.00000000E+00
  3.54283328E-04  1.44227498E-02 -7.94734929E-02  2.94065828E-01  4.65196508E-01
  3.69513632E-01  1.00000000E+00  1.00000000E+00  1.00000000E+00  1.00000000E+00
  5.14573896E-04  3.97813448E-03  2.04561787E-02  8.01481029E-02  2.34547703E-01
  4.45433686E-01  3.54668425E-01  1.12936881E-01  4.83735142E-01 -1.22922974E+00
  6.72968216E-01  3.49560514E-01  1.00000000E+00  1.00000000E+00  3.35025082E-03
  2.67639704E-02  1.23626824E-01  3.58457879E-01  6.16772964E-01  1.00000000E+00
  1.00000000E+00  1.00000000E+00  1.00000000E+00  1.82658350E-01  9.13291752E-01
  1.00000000E+00  1.00000000E+00  5.14573896E-04  3.97813448E-03  2.04561787E-02
  8.01481029E-02  2.34547703E-01  4.45433686E-01  3.54668425E-01  1.12936881E-01
  4.83735142E-01 -1.22922974E+00  6.72968216E-01  3.49560514E-01  1.00000000E+00
  1.00000000E+00  3.35025082E-03  2.67639704E-02  1.23626824E-01  3.58457879E-01
  6.16772964E-01  1.00000000E+00  1.00000000E+00  1.00000000E+00  1.00000000E+00
  1.82658350E-01  9.13291752E-01  1.00000000E+00  1.00000000E+00  5.14573896E-04
  3.97813448E-03  2.04561787E-02  8.01481029E-02  2.34547703E-01  4.45433686E-01
  3.54668425E-01  1.12936881E-01  4.83735142E-01 -1.22922974E+00  6.72968216E-01
  3.49560514E-01  1.00000000E+00  1.00000000E+00  3.35025082E-03  2.67639704E-02
  1.23626824E-01  3.58457879E-01  6.16772964E-01  1.00000000E+00  1.00000000E+00
  1.00000000E+00  1.00000000E+00  1.82658350E-01  9.13291752E-01  1.00000000E+00
  1.00000000E+00
Coordinates of each shell                  R   N=         177
  0.00000000E+00  0.00000000E+00  0.00000000E+00  0.00000000E+00  0.00000000E+00
  0.00000000E+00  0.00000000E+00  0.00000000E+00  0.00000000E+00  0.00000000E+00
  0.00000000E+00  0.00000000E+00  0.00000000E+00  0.00000000E+00  3.30813566E+00
  0.00000000E+00  0.00000000E+00  3.30813566E+00  0.00000000E+00  0.00000000E+00
  3.30813566E+00  0.00000000E+00  0.00000000E+00  3.30813566E+00  0.00000000E+00
  0.00000000E+00  3.30813566E+00  0.00000000E+00  0.00000000E+00  3.30813566E+00
  0.00000000E+00  0.00000000E+00  3.30813566E+00  0.00000000E+00  0.00000000E+00
  3.30813566E+00  0.00000000E+00  0.00000000E+00  3.30813566E+00  0.00000000E+00
  0.00000000E+00  3.30813566E+00  0.00000000E+00  0.00000000E+00  3.30813566E+00
  0.00000000E+00  0.00000000E+00  3.30813566E+00  0.00000000E+00  0.00000000E+00
  3.30813566E+00  0.00000000E+00  0.00000000E+00  3.30813566E+00  0.00000000E+00
  0.00000000E+00  3.30813566E+00  0.00000000E+00  0.00000000E+00  3.30813566E+00
  3.62647892E+00  2.14718241E+00  5.06234952E+00  3.62647892E+00  2.14718241E+00
  5.06234952E+00  3.62647892E+00  2.14718241E+00  5.06234952E+00  3.62647892E+00
  2.14718241E+00  5.06234952E+00  3.62647892E+00  2.14718241E+00  5.06234952E+00
  3.62647892E+00  2.14718241E+00  5.06234952E+00  3.62647892E+00  2.14718241E+00
  5.06234952E+00  3.62647892E+00  2.14718241E+00  5.06234952E+00  3.62647892E+00
  2.14718241E+00  5.06234952E+00  3.62647892E+00  2.14718241E+00  5.06234952E+00
  3.62647892E+00  2.14718241E+00  5.06234952E+00  3.62647892E+00  2.14718241E+00
  5.06234952E+00  3.62647892E+00  2.14718241E+00  5.06234952E+00  4.67707216E-02
 -4.21276645E+00  5.06554316E+00  4.67707216E-02 -4.21276645E+00  5.06554316E+00
  4.67707216E-02 -4.21276645E+00  5.06554316E+00  4.67707216E-02 -4.21276645E+00
  5.06554316E+00  4.67707216E-02 -4.21276645E+00  5.06554316E+00  4.67707216E-02
 -4.21276645E+00  5.06554316E+00  4.67707216E-02 -4.21276645E+00  5.06554316E+00
  4.67707216E-02 -4.21276645E+00  5.06554316E+00  4.67707216E-02 -4.21276645E+00
  5.06554316E+00  4.67707216E-02 -4.21276645E+00  5.06554316E+00  4.67707216E-02
 -4.21276645E+00  5.06554316E+00  4.67707216E-02 -4.21276645E+00  5.06554316E+00
  4.67707216E-02 -4.21276645E+00  5.06554316E+00 -3.67177565E+00  2.06702023E+00
  5.06420145E+00 -3.67177565E+00  2.06702023E+00  5.06420145E+00 -3.67177565E+00
  2.06702023E+00  5.06420145E+00 -3.67177565E+00  2.06702023E+00  5.06420145E+00
 -3.67177565E+00  2.06702023E+00  5.06420145E+00 -3.67177565E+00  2.06702023E+00
  5.06420145E+00 -3.67177565E+00  2.06702023E+00  5.06420145E+00 -3.67177565E+00
  2.06702023E+00  5.06420145E+00 -3.67177565E+00  2.06702023E+00  5.06420145E+00
 -3.67177565E+00  2.06702023E+00  5.06420145E+00 -3.67177565E+00  2.06702023E+00
  5.06420145E+00 -3.67177565E+00  2.06702023E+00  5.06420145E+00 -3.67177565E+00
  2.06702023E+00  5.06420145E+00
Num ILSW                                   I              100
ILSW                                       I   N=         100
           0           0           0           0           2           0
           0           0           0           0         402          -1
           5           0           0           0           0           0
           0           0           1           0           0           0
           1           1           0           0           0           0
           0           0      100000           0          -1           0
           0           0           0           0           0           0
           0           0           0           1           0           0
           0 -2000000000           1           0           0           0
           0           0           4          52           0           0
           0           0           5           0           0           0
           0           0           0           0           0           1
           0           0           0           0           0           0
           0           0           0           0           0           0
           0           0           0           0           0           0
           0           0           0           0           0           0
           0           0           0           0
Num RLSW                                   I               52
RLSW                                       R   N=          52
  8.00000000E-01  7.20000000E-01  1.00000000E+00  8.10000000E-01  2.00000000E-01
  0.00000000E+00  0.00000000E+00  1.00000000E+00  0.00000000E+00  0.00000000E+00
  0.00000000E+00  0.00000000E+00  1.00000000E+00  0.00000000E+00  0.00000000E+00
  0.00000000E+00  0.00000000E+00  1.00000000E+00  0.00000000E+00  0.00000000E+00
  0.00000000E+00  0.00000000E+00  1.00000000E+00  0.00000000E+00  0.00000000E+00
  0.00000000E+00  0.00000000E+00  1.00000000E+00  0.00000000E+00  0.00000000E+00
  0.00000000E+00  0.00000000E+00  1.00000000E+00  0.00000000E+00  0.00000000E+00
  0.00000000E+00  0.00000000E+00  0.00000000E+00  1.00000000E+00  1.00000000E+00
  0.00000000E+00  1.00000000E+00  0.00000000E+00  0.00000000E+00  0.00000000E+00
  0.00000000E+00  0.00000000E+00  0.00000000E+00  0.00000000E+00  0.00000000E+00
  0.00000000E+00  0.00000000E+00
ECP-MxAtEC                                 I           250000
ECP-MaxLECP                                I               10
ECP-MaxAtL                                 I          2250000
ECP-MxTECP                                 I         11250000
ECP-LenNCZ                                 I               15
ECP-KFirst                                 I   N=          50
           0           1           0           0           0           0
           2           0           0           0           0           4
           0           0           0           0           8           0
           0           0           0          12           0           0
           0           0          14           0           0           0
           0           0           0           0           0           0
           0           0           0           0           0           0
           0           0           0           0           0           0
           0           0
ECP-KLast                                  I   N=          50
           0           1           0           0           0           0
           3           0           0           0           0           7
           0           0           0           0          11           0
           0           0           0          13           0           0
           0           0          15           0           0           0
           0           0           0           0           0           0
           0           0           0           0           0           0
           0           0           0           0           0           0
           0           0
ECP-LMax                                   I   N=           5
           0           5           0           0           0
ECP-LPSkip                                 I   N=           5
           1           0           1           1           1
ECP-RNFroz                                 R   N=           5
  0.00000000E+00  6.00000000E+01  0.00000000E+00  0.00000000E+00  0.00000000E+00
ECP-NLP                                    I   N=          15
           2           2           2           2           2           2
           2           2           2           2           2           2
           2           2           2
ECP-CLP1                                   R   N=          15
  0.00000000E+00  2.81285499E+02  6.25202170E+01  7.22768970E+01  1.44591083E+02
  4.75869300E+00  9.94062100E+00  3.58485070E+01  5.37243420E+01  1.01152560E+01
  1.48337310E+01  1.22098920E+01  1.61902910E+01 -9.09666500E+00 -1.15319960E+01
ECP-CLP2                                   R   N=          15
  0.00000000E+00  0.00000000E+00  0.00000000E+00 -1.44553795E+02  1.44591083E+02
 -9.51738500E+00  9.94062100E+00 -3.58485070E+01  3.58162280E+01 -1.01152560E+01
  9.88915400E+00 -8.13992800E+00  8.09514500E+00  4.54833200E+00 -4.61279800E+00
ECP-ZLP                                    R   N=          15
  1.00000000E+00  1.22963030E+01  8.63263400E+00  1.02417900E+01  8.92417600E+00
  6.58134200E+00  6.25540300E+00  7.75433600E+00  7.72028100E+00  4.97026400E+00
  4.56378900E+00  3.88751200E+00  3.81196300E+00  5.69157700E+00  5.71556700E+00
MxBond                                     I                4
NBond                                      I   N=           5
           1           4           1           1           1
IBond                                      I   N=          20
           2           0           0           0           1           3
           4           5           2           0           0           0
           2           0           0           0           2           0
           0           0
RBond                                      R   N=          20
  1.00000000E+00  0.00000000E+00  0.00000000E+00  0.00000000E+00  1.00000000E+00
  1.00000000E+00  1.00000000E+00  1.00000000E+00  1.00000000E+00  0.00000000E+00
  0.00000000E+00  0.00000000E+00  1.00000000E+00  0.00000000E+00  0.00000000E+00
  0.00000000E+00  1.00000000E+00  0.00000000E+00  0.00000000E+00  0.00000000E+00
Virial Ratio                               R      2.091594602332974E+00
SCF Energy                                 R     -1.574304982155713E+03
Total Energy                               R     -1.574304982155713E+03
RMS Density                                R      9.499133069151125E-09
Job Status                                 I                1
Nuclear derivative order                   I                0
External E-field                           R   N=          35
  0.00000000E+00  0.00000000E+00  0.00000000E+00  0.00000000E+00  0.00000000E+00
  0.00000000E+00  0.00000000E+00  0.00000000E+00  0.00000000E+00  0.00000000E+00
  0.00000000E+00  0.00000000E+00  0.00000000E+00  0.00000000E+00  0.00000000E+00
  0.00000000E+00  0.00000000E+00  0.00000000E+00  0.00000000E+00  0.00000000E+00
  0.00000000E+00  0.00000000E+00  0.00000000E+00  0.00000000E+00  0.00000000E+00
  0.00000000E+00  0.00000000E+00  0.00000000E+00  0.00000000E+00  0.00000000E+00
  0.00000000E+00  0.00000000E+00  0.00000000E+00  0.00000000E+00  0.00000000E+00
IOpCl                                      I                0
IROHF                                      I                0
Alpha Orbital Energies                     R   N=         167
 -1.01531509E+02 -1.01531501E+02 -1.01531477E+02 -9.46350987E+00 -9.46350213E+00
 -9.46347859E+00 -7.22365888E+00 -7.22365065E+00 -7.22362645E+00 -7.21709720E+00
 -7.21708980E+00 -7.21706666E+00 -7.21702232E+00 -7.21701461E+00 -7.21699130E+00
 -5.58247823E+00 -3.41609022E+00 -3.41608902E+00 -3.41509047E+00 -9.38511772E-01
 -9.38506111E-01 -9.32769734E-01 -9.23323405E-01 -9.23322264E-01 -8.34770086E-01
 -8.03831800E-01 -8.03819408E-01 -5.77627944E-01 -4.02891030E-01 -3.89950067E-01
 -3.89942262E-01 -3.41065945E-01 -3.41060888E-01 -3.34037407E-01 -3.33817805E-01
 -3.33811313E-01 -3.31241650E-01 -1.52218801E-01 -3.89797909E-02 -3.89654998E-02
  2.77300942E-02  6.75027463E-02  8.29941867E-02  8.29954117E-02  1.35823801E-01
  1.67167079E-01  1.67172432E-01  1.95880939E-01  1.95885674E-01  2.33738238E-01
  2.76515197E-01  3.01305830E-01  3.11899371E-01  3.11909477E-01  3.29886511E-01
  3.29893767E-01  3.32337713E-01  3.45959050E-01  3.45966458E-01  3.95110865E-01
  4.02256283E-01  4.02266170E-01  4.23777135E-01  4.34818758E-01  4.34827557E-01
  4.51906523E-01  4.64139382E-01  4.64144668E-01  4.74726704E-01  4.97400628E-01
  4.97410603E-01  5.14432933E-01  5.52974788E-01  5.53005707E-01  5.63747071E-01
  6.97811280E-01  7.44137050E-01  7.44151132E-01  7.70592081E-01  7.70617537E-01
  7.97742851E-01  8.13826247E-01  8.15137937E-01  8.15143611E-01  8.29714027E-01
  9.28800803E-01  9.28805913E-01  9.57323133E-01  9.57354497E-01  9.84417671E-01
  1.14049713E+00  1.19828833E+00  1.19830630E+00  1.56171179E+00  1.56171552E+00
  1.71548113E+00  1.71780349E+00  1.71781420E+00  1.73610138E+00  1.74424992E+00
  1.74428474E+00  1.76850427E+00  1.78755855E+00  1.78757092E+00  1.79406872E+00
  1.85135967E+00  1.87070136E+00  1.87073984E+00  1.89381657E+00  1.89384604E+00
  1.93463750E+00  1.94489884E+00  1.97046599E+00  1.97048118E+00  2.00753074E+00
  2.00754066E+00  2.00999505E+00  2.05312524E+00  2.06238401E+00  2.06575354E+00
  2.06576447E+00  2.07397414E+00  2.07398612E+00  2.07443565E+00  2.07444239E+00
  2.07447222E+00  2.09486335E+00  2.11840290E+00  2.11844367E+00  2.13950387E+00
  2.18950389E+00  2.18951349E+00  2.20602994E+00  2.21992803E+00  2.21994012E+00
  2.23288752E+00  2.25368667E+00  2.26664405E+00  2.26665565E+00  2.30957705E+00
  2.36090803E+00  2.36094173E+00  2.41433277E+00  2.45516551E+00  2.45528173E+00
  2.48478196E+00  2.73590288E+00  2.78447306E+00  2.78452080E+00  3.41123555E+00
  1.06537260E+01  1.06537282E+01  1.06855221E+01  1.06865875E+01  1.06865959E+01
  1.06921626E+01  1.08158491E+01  1.08536178E+01  1.08536268E+01  2.48382173E+01
  2.48382966E+01  2.49167190E+01  3.54423657E+01  3.55938545E+01  3.55938764E+01
  3.56166311E+01  1.23368108E+02
Alpha MO coefficients                      R   N=       27889
 -1.56351333E-05  7.95407230E-05  9.64470598E-05 -2.97342677E-07 -1.54824365E-05
 -2.43646783E-06  1.44012292E-05 -3.36652144E-05  9.39415424E-05 -1.26986560E-04
 -3.58102996E-04  1.36870047E-03 -4.69647152E-08 -2.42025511E-06  1.55527375E-06
  1.22562726E-07  6.31589455E-06 -4.47446647E-06  4.35591483E-06  2.24160031E-04
 -9.88271408E-05 -2.59901285E-05 -1.33751671E-03  6.43047415E-04 -3.23307719E-06
 -1.66219883E-04  9.61706739E-05  1.03728417E-05  2.90163087E-07  1.49167809E-05
  2.58432570E-05  1.36153431E-06 -4.89937760E-05 -1.13594848E-06 -5.81312549E-05
 -1.15186254E-04 -6.06849056E-06 -2.37115496E-04 -1.04476221E-05 -5.39456914E-04
 -5.08575237E-04 -2.68874405E-05 -8.75420568E-05  8.90707906E-07  4.54023755E-05
 -1.66254204E-04 -8.76297677E-06 -4.97143724E-06  1.49125797E-04  6.61741550E-06
 -1.41946184E-07 -7.19181082E-06  2.29776023E-05  1.20862709E-06  5.01954582E-07
 -1.50026257E-05  1.19409477E-02 -3.91081995E-04 -1.34050500E-04  6.00368471E-05
  3.18062716E-05 -3.31830025E-07  1.66742362E-06 -1.18769095E-06 -3.57700757E-07
 -8.04962820E-06  4.00423553E-06  2.63408254E-06  2.31809112E-05 -9.68063160E-06
 -1.51202928E-05 -5.70839729E-05  1.42348084E-05 -2.44097921E-05  9.22340055E-05
 -3.94862926E-05 -7.40016049E-06  4.38115401E-06 -8.43077608E-06 -1.59127240E-05
  8.19309780E-06  1.74926198E-05 -1.28799242E-05  2.18647081E-05  4.07329563E-05
 -1.90986680E-05 -3.79181461E-06  3.07780566E-06 -4.15623314E-06  8.70252764E-06
 -1.30348556E-06 -1.67851179E-06 -9.83168816E-07  9.99106876E-01 -3.23832926E-02
 -1.05013510E-02  3.98628620E-03 -3.45783727E-03 -5.95095591E-07  5.86563336E-05
 -2.59992130E-05  6.56119147E-07 -8.08553452E-05  3.49430015E-05 -8.59924201E-07
  1.37649687E-04 -5.90820672E-05 -8.85728495E-08 -1.25959337E-04  5.80023663E-05
  1.47802257E-05 -1.03542255E-03  4.00449418E-04 -3.86979675E-05  4.63185020E-07
 -7.24085298E-05 -9.09927468E-05 -2.66107469E-06  1.30361058E-04 -1.88187093E-06
  2.51650793E-04  3.14066797E-04  8.58038119E-06 -2.43071164E-05 -2.82032187E-07
  8.70492072E-06 -3.33356381E-05 -4.43925456E-07 -1.14455289E-06  3.25149453E-05
  4.61660128E-02 -1.50025165E-03 -4.93482667E-04  1.96149196E-04 -8.91323636E-05
  2.11198585E-06  7.17554231E-07 -2.04675539E-06 -2.15757452E-06 -6.80246379E-06
  5.07327651E-06  1.76158917E-06  2.11238317E-05 -1.13841684E-05  1.05774809E-05
 -5.51844029E-05  1.57315045E-05 -6.51281940E-06  1.12775543E-04 -2.42426959E-05
 -8.47920015E-06 -6.56275771E-06 -7.57741566E-06 -1.44415455E-05 -1.19329959E-05
  2.13889805E-05  2.04385402E-05  1.86478093E-05  3.55324149E-05  3.11097386E-05
 -4.49744198E-06 -2.80743308E-06 -4.54258562E-06  9.43103869E-06  9.37925078E-07
  1.76726359E-06  2.94537089E-07 -1.42948017E-05  7.28050730E-05  8.81296054E-05
 -1.36837964E-05  8.66977988E-06 -2.21688701E-06  1.31726564E-05 -3.07933286E-05
  8.59285978E-05 -1.16154656E-04 -3.27606019E-04  1.25213528E-03 -2.14085869E-06
  1.35807659E-06  1.42492600E-06  5.58572918E-06 -3.54470543E-06 -4.10025146E-06
  1.98414007E-04 -1.25626599E-04 -9.03111006E-05 -1.18378587E-03  7.49657881E-04
  5.87805557E-04 -1.47118315E-04  9.31482140E-05  8.78711315E-05  9.50544165E-06
  1.31851866E-05 -8.35264479E-06 -1.52463626E-05  2.24137976E-05 -4.48816305E-05
 -5.13664917E-05  3.25401418E-05  6.79503386E-05 -9.98919479E-05 -2.17184827E-04
 -4.77187362E-04  3.02210059E-04  2.99956071E-04 -4.41191562E-04 -8.00314370E-05
  4.03184459E-05 -2.55278794E-05  9.80180335E-05 -1.44106463E-04 -4.43193161E-06
  1.36499051E-04  6.04361475E-06 -6.38073190E-06  4.03978535E-06 -1.35525129E-05
  1.99194975E-05  4.42237933E-07 -1.37362045E-05  1.44794068E-02 -4.72989226E-04
 -1.59950312E-04  6.89971846E-05  1.66894230E-05  1.16007699E-06 -1.35998906E-06
 -1.17524052E-06 -6.98903788E-06  4.46882664E-06  3.77237949E-06  2.10405606E-05
 -1.12821815E-05 -9.02777870E-06 -5.58102698E-05  1.97879401E-05  1.31623256E-05
  7.48453530E-05 -7.26997227E-05 -3.44907309E-05 -6.88258892E-06 -5.48077299E-06
  8.85172053E-06  1.71537037E-05 -9.52939829E-06  1.64051054E-05  1.34227726E-05
 -2.44104975E-05 -4.24556091E-05  2.49723613E-05 -3.54755449E-06 -2.48610755E-06
  5.08370669E-06 -6.54768412E-06  6.89674410E-06  1.89572248E-06 -6.64386474E-07
 -4.63340771E-02  1.49785278E-03  4.78696719E-04 -1.72820191E-04  2.31565807E-04
  1.70107361E-06 -3.93387739E-06  3.54254507E-07 -7.06818796E-06  8.90676583E-06
  1.86000975E-06  1.94637692E-05 -2.14781598E-05 -5.96640438E-06 -4.33278508E-05
  4.78030570E-05  1.04266835E-05  9.44607934E-05  3.58310593E-05 -6.15906407E-05
 -4.94860427E-06 -9.84106919E-06  4.59272659E-06  6.14292279E-06 -1.83625516E-05
  9.43754747E-06  2.63498680E-05 -1.43413795E-05 -2.20126414E-05  4.59328543E-05
 -2.27422071E-06 -5.31376055E-06 -1.09237799E-06 -1.21177236E-06  8.49957077E-06
 -1.68009644E-06 -2.84641338E-06  9.99065257E-01 -3.23815914E-02 -1.05001693E-02
  3.98502900E-03 -3.46394254E-03  5.11650430E-05 -2.89211547E-05 -2.59004426E-05
 -7.06571308E-05  4.02704059E-05  3.46037409E-05  1.20554886E-04 -6.92285380E-05
 -5.82591493E-05 -1.11734724E-04  6.59335407E-05  5.67897536E-05 -9.04288919E-04
  5.02342228E-04  4.03905191E-04 -3.81415841E-05 -6.28580173E-05  3.60792754E-05
  4.82745001E-05 -7.73649520E-05  1.29128933E-04  2.18568775E-04 -1.24897280E-04
 -1.65749253E-04  2.67666035E-04 -2.39981760E-05  7.82764207E-06 -4.03069051E-06
  1.67150983E-05 -2.85646076E-05 -1.17388430E-06  3.26391770E-05 -1.43809245E-05
  7.33423944E-05  8.86450914E-05  1.39000147E-05  8.16914143E-06 -2.22128634E-06
  1.32565751E-05 -3.09894761E-05  8.64737180E-05 -1.16877557E-04 -3.29922480E-04
  1.26068971E-03  2.17773985E-06  1.28205331E-06  1.43463468E-06 -5.68062345E-06
 -3.34555006E-06 -4.12803764E-06 -2.01899343E-04 -1.18631190E-04 -9.08305315E-05
  1.20443463E-03  7.07832810E-04  5.91201385E-04  1.49696686E-04  8.79612512E-05
  8.83585971E-05  9.58904675E-06 -1.33930170E-05 -7.87405716E-06 -1.29235665E-05
 -2.37436241E-05 -4.52513229E-05  5.21451200E-05  3.06631735E-05  5.75864918E-05
  1.05797133E-04 -2.19057068E-04  4.85164080E-04  2.85107257E-04  2.54349174E-04
  4.67376051E-04 -8.05227301E-05 -4.12116293E-05 -2.42244906E-05  8.30123490E-05
  1.52516259E-04 -4.53939826E-06  1.37521839E-04  6.07888225E-06  6.51450145E-06
  3.83001499E-06 -1.14797933E-05 -2.10900294E-05  4.58808759E-07 -1.38461261E-05
  1.00006792E+00 -3.24141072E-02 -1.05107429E-02  3.98906116E-03 -3.46692209E-03