PbCl3_new_1 0.0                                                         
SP        RB3LYP                                                      6-31G(d)            
Number of atoms                            I                7
Info1-9                                    I   N=           9
          16          16           0           0           0         110
           1          18        -502
Full Title                                 C   N=           2
PbCl3_new_1 0.0         
Route                                      C   N=           2
# nosymm b3lyp/6-31G*   
Charge                                     I                0
Multiplicity                               I                1
Number of electrons                        I               60
Number of alpha electrons                  I               30
Number of beta electrons                   I               30
Number of basis functions                  I               78
Number of independent functions            I               78
Number of point charges in /Mol/           I                0
Number of translation vectors              I                0
Atomic numbers                             I   N=           7
           6           1          17          17          17           1
           1
Nuclear charges                            R   N=           7
  6.00000000E+00  1.00000000E+00  1.70000000E+01  1.70000000E+01  1.70000000E+01
  1.00000000E+00  1.00000000E+00
Current cartesian coordinates              R   N=          21
  0.00000000E+00  0.00000000E+00  0.00000000E+00 -1.59794748E+00 -1.15664442E+00
 -5.59293813E-01  3.84627249E+00 -1.76551514E+00  6.00762118E+00 -3.45047128E+00
 -2.44621715E+00  6.01328456E+00 -3.91630546E-01  4.21319827E+00  6.00935132E+00
  1.80084459E+00 -8.05624205E-01 -5.58548562E-01 -2.02533344E-01  1.96229376E+00
 -5.58990512E-01
Number of symbols in /Mol/                 I                0
Force Field                                I                0
Atom Types                                 C   N=           7
                                                            
                        
Int Atom Types                             I   N=           7
           0           0           0           0           0           0
           0
MM charges                                 R   N=           7
  0.00000000E+00  0.00000000E+00  0.00000000E+00  0.00000000E+00  0.00000000E+00
  0.00000000E+00  0.00000000E+00
Integer atomic weights                     I   N=           7
          12           1          35          35          35           1
           1
Real atomic weights                        R   N=           7
  1.20000000E+01  1.00782504E+00  3.49688527E+01  3.49688527E+01  3.49688527E+01
  1.00782504E+00  1.00782504E+00
Atom fragment info                         I   N=           7
           0           0           0           0           0           0
           0
Atom residue num                           I   N=           7
           0           0           0           0           0           0
           0
Nuclear spins                              I   N=           7
           0           1           3           3           3           1
           1
Nuclear ZEff                               R   N=           7
 -3.60000000E+00 -1.00000000E+00 -1.42400000E+01 -1.42400000E+01 -1.42400000E+01
 -1.00000000E+00 -1.00000000E+00
Nuclear ZNuc                               R   N=           7
  6.00000000E+00  1.00000000E+00  1.70000000E+01  1.70000000E+01  1.70000000E+01
  1.00000000E+00  1.00000000E+00
Nuclear QMom                               R   N=           7
  0.00000000E+00  0.00000000E+00 -8.16500000E+00 -8.16500000E+00 -8.16500000E+00
  0.00000000E+00  0.00000000E+00
Nuclear GFac                               R   N=           7
  0.00000000E+00  2.79284600E+00  8.21874000E-01  8.21874000E-01  8.21874000E-01
  2.79284600E+00  2.79284600E+00
MicOpt                                     I   N=           7
          -1          -1          -1          -1          -1          -1
          -1
Number of residues                         I                0
Number of secondary structures             I                0
Number of contracted shells                I               25
Number of primitive shells                 I               74
Pure/Cartesian d shells                    I                1
Pure/Cartesian f shells                    I                0
Highest angular momentum                   I                2
Largest degree of contraction              I                6
Shell types                                I   N=          25
           0          -1          -1           2           0           0
           0          -1          -1          -1           2           0
          -1          -1          -1           2           0          -1
          -1          -1           2           0           0           0
           0
Number of primitives per shell             I   N=          25
           6           3           1           1           3           1
           6           6           3           1           1           6
           6           3           1           1           6           6
           3           1           1           3           1           3
           1
Shell to atom map                          I   N=          25
           1           1           1           1           2           2
           3           3           3           3           3           4
           4           4           4           4           5           5
           5           5           5           6           6           7
           7
Primitive exponents                        R   N=          74
  3.04752488E+03  4.57369518E+02  1.03948685E+02  2.92101553E+01  9.28666296E+00
  3.16392696E+00  7.86827235E+00  1.88128854E+00  5.44249258E-01  1.68714478E-01
  8.00000000E-01  1.87311370E+01  2.82539436E+00  6.40121692E-01  1.61277759E-01
  2.51801000E+04  3.78035000E+03  8.60474000E+02  2.42145000E+02  7.73349000E+01
  2.62470000E+01  4.91765000E+02  1.16984000E+02  3.74153000E+01  1.37834000E+01
  5.45215000E+00  2.22588000E+00  3.18649000E+00  1.14427000E+00  4.20377000E-01
  1.42657000E-01  7.50000000E-01  2.51801000E+04  3.78035000E+03  8.60474000E+02
  2.42145000E+02  7.73349000E+01  2.62470000E+01  4.91765000E+02  1.16984000E+02
  3.74153000E+01  1.37834000E+01  5.45215000E+00  2.22588000E+00  3.18649000E+00
  1.14427000E+00  4.20377000E-01  1.42657000E-01  7.50000000E-01  2.51801000E+04
  3.78035000E+03  8.60474000E+02  2.42145000E+02  7.73349000E+01  2.62470000E+01
  4.91765000E+02  1.16984000E+02  3.74153000E+01  1.37834000E+01  5.45215000E+00
  2.22588000E+00  3.18649000E+00  1.14427000E+00  4.20377000E-01  1.42657000E-01
  7.50000000E-01  1.87311370E+01  2.82539436E+00  6.40121692E-01  1.61277759E-01
  1.87311370E+01  2.82539436E+00  6.40121692E-01  1.61277759E-01
Contraction coefficients                   R   N=          74
  1.83473713E-03  1.40373228E-02  6.88426223E-02  2.32184443E-01  4.67941348E-01
  3.62311985E-01 -1.19332420E-01 -1.60854152E-01  1.14345644E+00  1.00000000E+00
  1.00000000E+00  3.34946043E-02  2.34726953E-01  8.13757326E-01  1.00000000E+00
  1.83295985E-03  1.40341988E-02  6.90973943E-02  2.37451980E-01  4.83033960E-01
  3.39855972E-01 -2.29739142E-03 -3.07137189E-02 -1.12528069E-01  4.50163278E-02
  5.89353363E-01  4.65206287E-01 -2.51828028E-01  6.15892514E-02  1.06018433E+00
  1.00000000E+00  1.00000000E+00  1.83295985E-03  1.40341988E-02  6.90973943E-02
  2.37451980E-01  4.83033960E-01  3.39855972E-01 -2.29739142E-03 -3.07137189E-02
 -1.12528069E-01  4.50163278E-02  5.89353363E-01  4.65206287E-01 -2.51828028E-01
  6.15892514E-02  1.06018433E+00  1.00000000E+00  1.00000000E+00  1.83295985E-03
  1.40341988E-02  6.90973943E-02  2.37451980E-01  4.83033960E-01  3.39855972E-01
 -2.29739142E-03 -3.07137189E-02 -1.12528069E-01  4.50163278E-02  5.89353363E-01
  4.65206287E-01 -2.51828028E-01  6.15892514E-02  1.06018433E+00  1.00000000E+00
  1.00000000E+00  3.34946043E-02  2.34726953E-01  8.13757326E-01  1.00000000E+00
  3.34946043E-02  2.34726953E-01  8.13757326E-01  1.00000000E+00
P(S=P) Contraction coefficients            R   N=          74
  0.00000000E+00  0.00000000E+00  0.00000000E+00  0.00000000E+00  0.00000000E+00
  0.00000000E+00  6.89990666E-02  3.16423961E-01  7.44308291E-01  1.00000000E+00
  0.00000000E+00  0.00000000E+00  0.00000000E+00  0.00000000E+00  0.00000000E+00
  0.00000000E+00  0.00000000E+00  0.00000000E+00  0.00000000E+00  0.00000000E+00
  0.00000000E+00  3.98940088E-03  3.03177067E-02  1.29880029E-01  3.27951072E-01
  4.53527100E-01  2.52154056E-01 -1.42993147E-02  3.23572333E-01  7.43507765E-01
  1.00000000E+00  0.00000000E+00  0.00000000E+00  0.00000000E+00  0.00000000E+00
  0.00000000E+00  0.00000000E+00  0.00000000E+00  3.98940088E-03  3.03177067E-02
  1.29880029E-01  3.27951072E-01  4.53527100E-01  2.52154056E-01 -1.42993147E-02
  3.23572333E-01  7.43507765E-01  1.00000000E+00  0.00000000E+00  0.00000000E+00
  0.00000000E+00  0.00000000E+00  0.00000000E+00  0.00000000E+00  0.00000000E+00
  3.98940088E-03  3.03177067E-02  1.29880029E-01  3.27951072E-01  4.53527100E-01
  2.52154056E-01 -1.42993147E-02  3.23572333E-01  7.43507765E-01  1.00000000E+00
  0.00000000E+00  0.00000000E+00  0.00000000E+00  0.00000000E+00  0.00000000E+00
  0.00000000E+00  0.00000000E+00  0.00000000E+00  0.00000000E+00
Coordinates of each shell                  R   N=          75
  0.00000000E+00  0.00000000E+00  0.00000000E+00  0.00000000E+00  0.00000000E+00
  0.00000000E+00  0.00000000E+00  0.00000000E+00  0.00000000E+00  0.00000000E+00
  0.00000000E+00  0.00000000E+00 -1.59794748E+00 -1.15664442E+00 -5.59293813E-01
 -1.59794748E+00 -1.15664442E+00 -5.59293813E-01  3.84627249E+00 -1.76551514E+00
  6.00762118E+00  3.84627249E+00 -1.76551514E+00  6.00762118E+00  3.84627249E+00
 -1.76551514E+00  6.00762118E+00  3.84627249E+00 -1.76551514E+00  6.00762118E+00
  3.84627249E+00 -1.76551514E+00  6.00762118E+00 -3.45047128E+00 -2.44621715E+00
  6.01328456E+00 -3.45047128E+00 -2.44621715E+00  6.01328456E+00 -3.45047128E+00
 -2.44621715E+00  6.01328456E+00 -3.45047128E+00 -2.44621715E+00  6.01328456E+00
 -3.45047128E+00 -2.44621715E+00  6.01328456E+00 -3.91630546E-01  4.21319827E+00
  6.00935132E+00 -3.91630546E-01  4.21319827E+00  6.00935132E+00 -3.91630546E-01
  4.21319827E+00  6.00935132E+00 -3.91630546E-01  4.21319827E+00  6.00935132E+00
 -3.91630546E-01  4.21319827E+00  6.00935132E+00  1.80084459E+00 -8.05624205E-01
 -5.58548562E-01  1.80084459E+00 -8.05624205E-01 -5.58548562E-01 -2.02533344E-01
  1.96229376E+00 -5.58990512E-01 -2.02533344E-01  1.96229376E+00 -5.58990512E-01
Num ILSW                                   I              100
ILSW                                       I   N=         100
           0           1           0           0           2           0
           0           0           0           0         402          -1
           5           0           0           0           0           0
           0           0           1           0           0           0
           1           1           0           0           0           0
           0           0      100000           0          -1           0
           0           0           0           0           0           0
           0           0           0           1           0           0
           0 -2000000000           1           0           0           0
           0           0           4          52           0           0
           0           0           5           0           0           0
           0           0           0           0           0           1
           0           0           0           0           0           0
           0           0           0           0           0           0
           0           0           0           0           0           0
           0           0           0           0           0           0
           0           0           0           0
Num RLSW                                   I               52
RLSW                                       R   N=          52
  8.00000000E-01  7.20000000E-01  1.00000000E+00  8.10000000E-01  2.00000000E-01
  0.00000000E+00  0.00000000E+00  1.00000000E+00  0.00000000E+00  0.00000000E+00
  0.00000000E+00  0.00000000E+00  1.00000000E+00  0.00000000E+00  0.00000000E+00
  0.00000000E+00  0.00000000E+00  1.00000000E+00  0.00000000E+00  0.00000000E+00
  0.00000000E+00  0.00000000E+00  1.00000000E+00  0.00000000E+00  0.00000000E+00
  0.00000000E+00  0.00000000E+00  1.00000000E+00  0.00000000E+00  0.00000000E+00
  0.00000000E+00  0.00000000E+00  1.00000000E+00  0.00000000E+00  0.00000000E+00
  0.00000000E+00  0.00000000E+00  0.00000000E+00  1.00000000E+00  1.00000000E+00
  0.00000000E+00  1.00000000E+00  0.00000000E+00  0.00000000E+00  0.00000000E+00
  0.00000000E+00  0.00000000E+00  0.00000000E+00  0.00000000E+00  0.00000000E+00
  0.00000000E+00  0.00000000E+00
MxBond                                     I                3
NBond                                      I   N=           7
           3           1           0           0           0           1
           1
IBond                                      I   N=          21
           2           6           7           1           0           0
           0           0           0           0           0           0
           0           0           0           1           0           0
           1           0           0
RBond                                      R   N=          21
  1.00000000E+00  1.00000000E+00  1.00000000E+00  1.00000000E+00  0.00000000E+00
  0.00000000E+00  0.00000000E+00  0.00000000E+00  0.00000000E+00  0.00000000E+00
  0.00000000E+00  0.00000000E+00  0.00000000E+00  0.00000000E+00  0.00000000E+00
  1.00000000E+00  0.00000000E+00  0.00000000E+00  1.00000000E+00  0.00000000E+00
  0.00000000E+00
Virial Ratio                               R      2.003505350224628E+00
SCF Energy                                 R     -1.420182958743918E+03
Total Energy                               R     -1.420182958743918E+03
RMS Density                                R      6.312423771565070E-09
Job Status                                 I                1
Nuclear derivative order                   I                0
External E-field                           R   N=          35
  0.00000000E+00  0.00000000E+00  0.00000000E+00  0.00000000E+00  0.00000000E+00
  0.00000000E+00  0.00000000E+00  0.00000000E+00  0.00000000E+00  0.00000000E+00
  0.00000000E+00  0.00000000E+00  0.00000000E+00  0.00000000E+00  0.00000000E+00
  0.00000000E+00  0.00000000E+00  0.00000000E+00  0.00000000E+00  0.00000000E+00
  0.00000000E+00  0.00000000E+00  0.00000000E+00  0.00000000E+00  0.00000000E+00
  0.00000000E+00  0.00000000E+00  0.00000000E+00  0.00000000E+00  0.00000000E+00
  0.00000000E+00  0.00000000E+00  0.00000000E+00  0.00000000E+00  0.00000000E+00
IOpCl                                      I                0
IROHF                                      I                0
Alpha Orbital Energies                     R   N=          78
 -1.01554995E+02 -1.01554986E+02 -1.01548519E+02 -1.03712911E+01 -9.46609168E+00
 -9.46607601E+00 -9.45997339E+00 -7.23097374E+00 -7.23093714E+00 -7.22251416E+00
 -7.22129778E+00 -7.22129164E+00 -7.21947202E+00 -7.21945577E+00 -7.21733765E+00
 -7.21345475E+00 -8.04215813E-01 -7.79753297E-01 -7.77043034E-01 -7.73455924E-01
 -5.32315700E-01 -5.32146797E-01 -3.22785971E-01 -3.12240743E-01 -3.11056451E-01
 -3.09248132E-01 -3.06362383E-01 -3.03409124E-01 -2.97144022E-01 -2.93242171E-01
 -2.66703757E-01 -2.59334540E-01  4.20272493E-02  8.78399589E-02  8.80315870E-02
  2.64520668E-01  3.47274921E-01  3.49092123E-01  3.91717494E-01  4.12172762E-01
  4.12709684E-01  4.18332315E-01  4.31593165E-01  4.34761648E-01  5.16480957E-01
  5.17963618E-01  5.29944288E-01  5.44080159E-01  5.98929310E-01  6.04852876E-01
  7.04042123E-01  7.89246844E-01  7.89499076E-01  8.64355349E-01  8.65821891E-01
  8.66982496E-01  8.67387303E-01  8.70011579E-01  8.71778220E-01  8.72309053E-01
  8.72424276E-01  8.73184514E-01  8.79915581E-01  8.82838732E-01  8.82920705E-01
  8.83315605E-01  8.84387991E-01  8.85548708E-01  8.87203560E-01  1.51950964E+00
  1.51953977E+00  1.79975867E+00  2.10353616E+00  2.10362904E+00  3.93892099E+00
  4.20281304E+00  4.21201962E+00  4.21579916E+00
Alpha MO coefficients                      R   N=        6084
  2.25168101E-06  5.57212272E-07 -6.31044562E-06 -4.54294267E-06  1.28190260E-05
 -1.03397458E-05  2.05070183E-05  1.45411214E-05 -3.00560394E-05  6.26887600E-06
  9.69787200E-06  6.66080961E-06 -5.82264180E-06 -1.48087079E-07 -9.24931510E-08
  1.90023402E-05 -2.18444432E-05 -3.21624385E-05  3.04441739E-06  4.18521223E-06
  1.16795811E-06 -3.76319752E-07  3.50323396E-06 -2.20184934E-05 -5.90593127E-06
  1.80747813E-06 -3.83796673E-05  4.44976308E-05  1.10242748E-05 -3.00778789E-06
  6.90544645E-06  1.25608979E-05  1.24176018E-05 -9.26280090E-07  9.04099251E-08
 -2.77248541E-08  9.95750718E-01  1.51525086E-02  7.02318686E-06  5.27597881E-06
 -4.78704426E-06 -2.10003693E-02 -1.43537985E-05 -1.06449541E-05  6.12020634E-06
  1.58913427E-03  2.28227137E-05  1.69813868E-05 -8.51693099E-06  7.54915001E-03
  7.54827479E-03  7.54716891E-03  2.08436655E-06 -1.92397206E-07 -1.48029598E-07
 -2.23251444E-02 -3.36107353E-04  2.43307584E-06  3.79680007E-06 -2.74363266E-07
  4.73736049E-04 -1.25453309E-05 -1.95018700E-05  1.69915414E-06 -7.48490965E-05
  2.43541377E-05  3.97461214E-05 -2.87262743E-06 -1.57272414E-04 -1.60832445E-04
 -1.56260874E-04 -2.67475481E-06  3.14772927E-09  9.13092509E-08 -4.17830746E-06
 -4.38758231E-06 -4.55464553E-06 -3.20471049E-06  2.35751393E-06  5.87723572E-07
 -7.61962306E-07  7.56593106E-06  1.34171484E-05 -1.07956391E-05  2.27175107E-06
 -2.44730786E-05 -3.14845283E-05  1.34723192E-05  3.24180137E-06  6.96974638E-06
  1.17095596E-06 -1.56584061E-09  1.62734197E-07 -3.85245712E-06 -4.98801091E-06
 -3.36698233E-05  3.18323428E-06  2.02897635E-06 -3.88616049E-06 -3.90899733E-07
  3.66340293E-06 -1.08564680E-05  2.03009010E-05  1.87657927E-06 -4.01346803E-05
  2.26347385E-05 -4.04760158E-05 -3.11876088E-06  1.12723103E-05  9.08341723E-06
  1.29856122E-05  3.04956261E-06  8.25148390E-08 -4.95176330E-08  2.23255965E-02
  3.43354994E-04 -9.82262732E-07 -4.08934514E-06 -4.85191040E-07 -4.67944681E-04
  5.98790353E-06  2.17789679E-05  1.95258795E-06 -3.63662725E-06 -1.32833672E-05
 -4.36731664E-05 -3.20962254E-06  1.81496581E-04  1.77410917E-04  1.82179522E-04
 -2.34516452E-06 -7.26177700E-08 -6.12750335E-08  9.95750727E-01  1.51526702E-02
  6.78612991E-07 -8.60538388E-06 -4.80612934E-06 -2.10002468E-02 -1.84084131E-06
  1.69793164E-05  6.20682952E-06  1.58740202E-03  3.08402709E-06 -2.66438653E-05
 -8.66127788E-06  7.54739050E-03  7.55093435E-03  7.54774683E-03 -3.03506088E-07
 -1.31452208E-08  2.44407688E-07 -4.22849024E-06 -3.77571322E-06  1.88462786E-05
 -2.21321274E-05  2.30386056E-06  5.68201124E-07  6.93578975E-06 -3.28489012E-06
  1.31030311E-05 -1.04684874E-05 -2.23282440E-05  1.07719528E-05 -3.08210347E-05
  4.61557164E-06  1.17144373E-05  6.80087141E-06  4.50070275E-06  1.36381530E-07
 -7.76642160E-08 -4.13134338E-06 -3.70823367E-06  9.96000806E-01  1.51570074E-02
 -2.67490845E-06  1.22341511E-06 -5.66313663E-06 -2.10068000E-02  1.40493761E-05
 -6.45001362E-06  6.46481150E-06  1.58869713E-03 -2.42403845E-05  1.11312651E-05
 -8.72920972E-06  7.55081263E-03  7.55150716E-03  7.55007682E-03  4.69169008E-07
  6.29410685E-07 -2.90390641E-07  3.33620625E-05  4.11717800E-06 -4.34495412E-06
  3.11432720E-07 -3.75748997E-07  2.16850150E-06  2.28172497E-05 -1.32384249E-06
  1.80460046E-06 -3.90708041E-05 -4.59570099E-05  1.59904386E-06 -2.99981639E-06
  7.56572370E-06  1.33146330E-05  1.31815382E-05 -3.82822698E-07 -7.59742432E-08
 -4.46070143E-08  3.33933069E-05  4.11794985E-06 -3.06812249E-06  3.09381732E-06
 -3.78368473E-07  2.16643380E-06  1.58753789E-05 -1.64499082E-05  1.81815845E-06
 -3.90711471E-05 -3.11645502E-05  3.38275245E-05 -3.02652122E-06  1.12025183E-05
  9.67900962E-06  1.31828593E-05  3.22378446E-06 -1.75582162E-08  8.88301933E-08
  1.89547283E-05 -2.21654761E-05 -4.27258436E-06 -4.47294993E-06  9.92820834E-01
  4.84260372E-02 -5.06845640E-07  1.84223772E-07  2.57514641E-04 -1.11931643E-02
 -1.30082306E-08 -1.32131726E-07  7.45640108E-04 -9.31694180E-03 -9.31688771E-03
 -9.60366514E-03  6.36042776E-08 -7.96942530E-07  3.86091645E-07 -2.75388077E-04
  2.27663547E-03 -1.06000691E-06 -5.10974790E-06 -1.06752191E-05  4.84507796E-06
 -1.20226361E-05 -3.25396697E-05  5.68943412E-05 -2.58255716E-05  6.55757034E-05
  8.43858095E-05 -9.67027700E-05  4.38809083E-05 -1.14570047E-04 -1.51163215E-05
 -1.65696218E-05 -1.44667839E-05 -9.60055732E-07  3.91018816E-06 -1.77203816E-06
 -9.79508275E-07 -5.29755251E-06  9.80788703E-06  6.94155669E-06 -1.24003874E-05
 -3.24220659E-05 -5.15349369E-05 -3.66772723E-05  6.65470002E-05  8.35318316E-05
  8.54965491E-05  6.12510632E-05 -1.14022047E-04 -1.55062731E-05 -1.60711750E-05
 -1.44676874E-05  1.01899717E-06 -3.21925020E-06 -2.32743556E-06 -9.80449906E-07
 -5.31143489E-06  1.21688741E-06 -1.19868685E-05 -1.23947484E-05 -3.24439880E-05
 -6.24057585E-06  6.31242541E-05  6.65275993E-05  8.36825873E-05  1.00938938E-05
 -1.05015559E-04 -1.14009632E-04 -1.67461618E-05 -1.49037790E-05 -1.45189691E-05
 -1.85691783E-07 -3.73550024E-07  3.97051709E-06 -2.75262106E-04  2.27641484E-03
 -2.75319256E-04  2.27659658E-03 -4.10120543E-06 -1.60387492E-06  5.89945828E-05
  8.58286576E-05 -5.21012602E-05 -1.63633300E-05 -1.82637104E-04 -2.60928868E-04
  1.25163696E-04  1.28906295E-05 -5.33309283E-05 -1.59002175E-05  4.82521215E-05
  6.38098928E-06  9.22079446E-06 -1.78949170E-04  1.60671152E-04  1.35762252E-04
 -5.02944315E-04 -3.05503170E-05 -2.87795523E-05  1.43077079E-06 -7.59944877E-05
  1.70984604E-04  1.65780562E-04 -6.10356274E-06  1.50267316E-04 -3.18540272E-04
 -3.15022171E-04  1.08618299E-05  2.45877592E-07 -3.88202140E-05 -2.56665157E-05
  1.50747144E-05 -4.21656398E-07  1.12719950E-08 -2.48208824E-01  8.91266425E-01
  4.82418322E-04  3.43819532E-04 -4.54584518E-04  6.37840907E-02  1.72345186E-04
  2.21906222E-04 -7.62598625E-05 -1.03426374E-02 -2.80375719E-04 -3.81723913E-04
  6.77422183E-05 -1.42147837E-02 -1.43395822E-02 -1.44197580E-02  2.50788615E-04
 -5.14779439E-06 -5.65278625E-06  1.39469523E-01 -5.00830390E-01 -4.57465678E-05
  3.06923871E-04  2.57141775E-04 -3.59048320E-02  1.18992614E-04  2.93911321E-04
  3.36136230E-05  6.03836130E-03 -2.18732149E-04 -5.22904137E-04 -2.12222081E-05
  8.09962567E-03  7.86139159E-03  8.04983377E-03  2.88388618E-05 -5.65775592E-07
 -4.64096524E-06  1.72848010E-05  3.86989294E-05  1.25714800E-04 -4.50842799E-05
 -1.46637790E-05 -5.71423239E-06  4.14306786E-05 -5.15360128E-05 -1.86349168E-04
 -5.96752862E-05 -1.25217561E-04  1.58514825E-04  4.48197807E-04 -1.03777352E-04
 -4.08079529E-05 -5.68083593E-05  1.44252645E-05  4.39771929E-06 -5.51950341E-06
 -5.05054111E-05  1.93969593E-04  4.85487314E-04 -1.79836009E-03 -4.64446699E-05
  3.33383305E-05  5.02545924E-06 -2.71300094E-04  2.53068274E-04 -1.84741583E-04
 -2.13158213E-05  5.35732059E-04 -4.62447785E-04  3.41763421E-04  3.79029311E-05
 -6.70728334E-05 -7.02573696E-05 -9.14066480E-05 -1.37358010E-05 -1.20810757E-06
  6.00201671E-07 -1.39477868E-01  5.00789497E-01  2.86735087E-04  2.47309467E-04
 -2.52371412E-04  3.57192725E-02  3.43418780E-06 -1.77418331E-04 -6.02926930E-05
 -5.37606128E-03  2.81792987E-05  3.47438223E-04  6.97465948E-05 -8.08343868E-03
 -8.12380699E-03 -8.20396896E-03  1.58672983E-04 -2.13716782E-06 -2.49511564E-06
 -2.48213500E-01  8.91243428E-01  2.65390748E-05 -6.30056977E-04 -4.52071180E-04
  6.36800961E-02  8.76570598E-05 -4.68375858E-05 -9.13656744E-05 -9.97084380E-03
 -1.53808243E-04  2.86237251E-05  9.51450686E-05 -1.45815776E-02 -1.41115339E-02
 -1.45059182E-02 -1.63322122E-05  9.16498859E-07  6.35289379E-06  5.87175077E-05
  1.14374738E-04 -1.37227114E-04  2.45788372E-04 -1.13185762E-05 -4.00485873E-06
 -7.87655769E-05  3.71983801E-05 -1.36215002E-04 -4.39032600E-05  2.40052755E-04
 -1.15778481E-04  3.31563381E-04 -2.31948220E-05 -8.34576079E-05 -4.15734395E-05
 -3.80903004E-05 -8.30960756E-06  3.94738977E-06  4.22740343E-05  8.18741277E-05
 -2.84710702E-01  1.02231152E+00  1.20976223E-04 -5.62392498E-05 -6.38512599E-04
  7.31624382E-02 -1.23117348E-04  5.65060529E-05 -1.02104677E-04 -1.16565212E-02
  2.38483325E-04 -1.09510314E-04  9.56251846E-05 -1.65808061E-02 -1.63324321E-02
 -1.65576734E-02  1.67437720E-04  8.65064569E-05 -3.99970127E-05 -3.66439486E-04
  1.27528920E-03  5.10818134E-05 -1.41853997E-06  2.00456910E-06 -1.40796626E-05
 -2.79669619E-04  7.65114422E-06 -1.53116110E-05  3.64046446E-04  5.15977246E-04
 -8.63270010E-06  2.77149749E-05 -7.35674464E-05 -1.10513449E-04 -1.09000457E-04
  2.04886879E-06  7.46850608E-07  3.73454709E-07 -3.66992785E-04  1.27727717E-03
  3.43704766E-05 -3.78386184E-05  2.03508786E-06 -1.39240788E-05 -1.88090212E-04
  2.07222629E-04 -1.54912422E-05  3.64009642E-04  3.42847189E-04 -3.85868540E-04
  2.80482554E-05 -9.66154149E-05 -8.75293312E-05 -1.09038490E-04 -2.07794989E-05
  2.14818890E-07 -8.22426358E-07 -1.81301595E-04  2.36800454E-04  4.34550059E-05
  9.06649626E-05 -1.20348377E-05 -2.88435756E-05  7.80881200E-05  1.18376214E-04
 -5.01869130E-05  1.82481003E-04 -3.17400258E-04 -4.79002558E-04  1.03079816E-04
  2.49358325E-06 -7.12787785E-05 -3.23171459E-05  5.18579455E-05  4.00273007E-06
  5.73755051E-06 -1.17474561E-04 -2.23131686E-04 -3.20943815E-06 -1.25931423E-05
  8.09067158E-04  1.11496828E-03  1.95593819E-05 -6.16087672E-05  2.65847432E-04
  2.55339557E-04 -5.68086362E-06  2.27034161E-04 -4.83119574E-04 -4.50352722E-04
  1.04422891E-05 -2.59411842E-06 -7.79968669E-05 -5.17121184E-05  2.75224747E-05
 -3.04205246E-07 -5.04897933E-08  1.91344397E-04 -6.29889723E-04  6.68354570E-01
  5.21292806E-01 -1.32843082E-02  2.38352468E-04  1.95435980E-02  1.53810125E-02
 -4.13354038E-04 -6.99249011E-04 -5.66827684E-03 -4.69258974E-03  1.50746084E-04
  1.26670008E-04  9.06319181E-05  1.16777890E-04  8.52089892E-08 -2.85218782E-05
 -2.22321201E-05 -1.21187742E-04  3.59272350E-04 -2.36353071E-02  5.12415111E-01
  7.60233959E-03 -2.50267365E-04 -5.18338479E-04  1.52640214E-02  2.27656234E-04
  8.11768361E-04 -1.39202517E-04 -4.89656337E-03 -7.10275691E-05 -1.46767928E-04
 -1.22088044E-04 -1.58843440E-04  3.08397825E-05  9.91146514E-07 -2.22685241E-05
  1.25680966E-05  1.93212979E-05  8.89765943E-05  1.42854972E-04  4.91331939E-05
  1.17840875E-04 -6.33221160E-05  6.73636842E-05  2.04691339E-04 -7.44562305E-04
  2.57500152E-04 -2.73922848E-04 -4.21004880E-04  1.73926652E-04  1.06759703E-04
  1.31835515E-04 -1.83007726E-05 -3.49372358E-06  3.48734517E-06  3.06000461E-05
  1.03346670E-04  1.30465211E-05  5.11912732E-05 -8.58411035E-04  7.60023374E-04
 -8.41788626E-05  2.50444852E-04 -4.63318567E-04  3.05535572E-04  2.19091265E-05
 -9.22905334E-04  8.64355584E-04 -5.62158278E-04 -4.04231736E-05  1.54864984E-04
  1.72755561E-04  2.10188302E-04  3.12493858E-05  8.22797066E-07 -4.11301827E-07
 -1.04020605E-04  4.27858145E-04 -4.05066554E-01 -3.14928372E-01  8.15994034E-03
  8.41734241E-05 -1.16286785E-02 -8.79470346E-03  2.74212285E-04 -4.14318244E-04
  3.01185217E-03  1.85931954E-03 -1.26906267E-04  1.00763890E-04  6.36681424E-05
  1.19469899E-04 -4.06115386E-05  1.67597148E-05  1.30016639E-05 -1.80759379E-04
  6.70657785E-04 -4.03675640E-02  8.46739764E-01  1.27590811E-02 -3.60388873E-05
 -1.28579254E-03  2.44167305E-02  4.16549718E-04 -4.25593375E-05  5.48072443E-04
 -6.51015768E-03 -1.77713920E-04  5.20147655E-05 -7.24272922E-06  5.16881308E-05
 -1.46945469E-05  1.74420372E-06 -3.55085364E-05 -4.77291843E-05 -5.47579779E-05
  8.24360988E-05  1.99120872E-04  2.39482087E-07  7.86448344E-07 -2.58569817E-05
 -5.88553792E-05 -1.20633967E-07 -6.11907067E-06  1.12863534E-04  2.59839238E-04
  9.80812419E-07 -1.03054645E-05  1.12020628E-05  6.41926820E-07 -1.11512557E-05
 -3.85202896E-06 -8.72196877E-06  7.88129670E-06  1.94866012E-04 -6.34262570E-08
  2.10280060E-07  4.14190706E-01  9.00301223E-01 -4.90805580E-04 -1.79725683E-08
  1.19139068E-02  2.58961745E-02 -1.41503801E-05  2.09202652E-07 -3.24524158E-03
 -7.05336628E-03  3.87412953E-06  1.52642343E-05 -1.54030555E-05 -9.61749928E-10
  1.51253013E-05 -2.01417340E-05 -4.37440655E-05  7.16714923E-06  2.57727210E-05
  8.83712816E-04 -2.86469656E-03  2.72224275E-04  1.41696557E-04  3.30200021E-04
 -1.18210116E-04  9.92093315E-06 -4.86751005E-04 -5.92518412E-04  8.01176652E-05
 -5.96644498E-06  6.42369353E-05  1.05308228E-04  1.06660412E-04  1.06065508E-06
 -1.94529035E-07  6.69173641E-08 -7.15269748E-06 -2.57192071E-05 -2.73976713E-03
 -1.19372472E-03 -2.71013930E-04 -1.41418337E-04 -3.04239978E-04  1.73036181E-04
 -1.00735750E-05  4.85758752E-04  4.46138357E-04 -3.96326380E-04  6.32441922E-06
 -8.67654264E-05 -8.24198231E-05 -1.06447122E-04 -2.35520839E-05  1.91871556E-07
 -1.28050598E-07 -1.06760248E-06  7.04102248E-06 -7.05621520E-06 -1.95481524E-04
  5.54245266E-07  3.46689722E-07  6.39666252E-05  1.38990719E-04  7.65153692E-06
  6.64374930E-06 -1.80154359E-04 -3.77136614E-04 -1.96738437E-05  6.33805864E-05
 -5.81803993E-05  1.84346606E-06  6.24927050E-05  4.09061484E-06  8.38485895E-06
 -2.65831823E-04  2.96516065E-04 -2.72938624E-08 -6.70224464E-08  1.78220418E-04
  3.85578610E-04 -1.76136711E-05 -5.74566400E-07  1.02177065E-06  6.10043339E-08
 -2.57537896E-06  1.57310473E-06  5.95705841E-06  1.65935914E-05  3.73502631E-06
 -8.99251520E-07  3.30617406E-07 -2.52480883E-07 -6.34055614E-07  2.26326069E-06
  5.29759892E-06  1.07151391E-04 -3.90581528E-04 -1.47871952E-02  1.52576708E-03
 -6.85422621E-01  5.51994262E-05 -4.03873885E-04  4.86558082E-05 -1.93265535E-02
 -4.17093527E-05  9.39545243E-05 -2.00636469E-05  5.27840137E-03 -1.98847483E-05