PbMe3_new_1 0.0                                                         
SP        RB3LYP                                                      6-31G(d)            
Number of atoms                            I               16
Info1-9                                    I   N=           9
          25          25           0           0           0         110
           1          18        -502
Full Title                                 C   N=           2
PbMe3_new_1 0.0         
Route                                      C   N=           2
# nosymm b3lyp/6-31G*   
Charge                                     I                0
Multiplicity                               I                1
Number of electrons                        I               36
Number of alpha electrons                  I               18
Number of beta electrons                   I               18
Number of basis functions                  I               84
Number of independent functions            I               84
Number of point charges in /Mol/           I                0
Number of translation vectors              I                0
Atomic numbers                             I   N=          16
           6           1           6           1           1           1
           6           1           1           1           6           1
           1           1           1           1
Nuclear charges                            R   N=          16
  6.00000000E+00  1.00000000E+00  6.00000000E+00  1.00000000E+00  1.00000000E+00
  1.00000000E+00  6.00000000E+00  1.00000000E+00  1.00000000E+00  1.00000000E+00
  6.00000000E+00  1.00000000E+00  1.00000000E+00  1.00000000E+00  1.00000000E+00
  1.00000000E+00
Current cartesian coordinates              R   N=          48
  0.00000000E+00  0.00000000E+00  0.00000000E+00  1.89863809E+00  4.10422379E-01
 -6.74828286E-01  2.69133872E+00 -2.98539848E+00  5.68496082E+00  4.58314789E+00
 -2.57317870E+00  4.99226285E+00  2.68548998E+00 -2.97528638E+00  7.74130188E+00
  2.08345397E+00 -4.82517398E+00  4.99621961E+00  1.24016911E+00  3.82318015E+00
  5.68487911E+00  1.23592165E+00  3.81224792E+00  7.74122119E+00  3.13685666E+00
  4.21690427E+00  4.99480676E+00 -6.33024048E-02  5.25566106E+00  4.99374033E+00
 -3.93145333E+00 -8.37507098E-01  5.68409289E+00 -4.52177942E+00 -2.68040828E+00
  4.98845420E+00 -3.91955259E+00 -8.40693100E-01  7.74040466E+00 -5.21964598E+00
  6.10974326E-01  4.99769870E+00 -1.30468538E+00  1.43916534E+00 -6.74701768E-01
 -5.93873590E-01 -1.84938663E+00 -6.75075216E-01
Number of symbols in /Mol/                 I                0
Force Field                                I                0
Atom Types                                 C   N=          16
                                                            
                                                            
                                                            
            
Int Atom Types                             I   N=          16
           0           0           0           0           0           0
           0           0           0           0           0           0
           0           0           0           0
MM charges                                 R   N=          16
  0.00000000E+00  0.00000000E+00  0.00000000E+00  0.00000000E+00  0.00000000E+00
  0.00000000E+00  0.00000000E+00  0.00000000E+00  0.00000000E+00  0.00000000E+00
  0.00000000E+00  0.00000000E+00  0.00000000E+00  0.00000000E+00  0.00000000E+00
  0.00000000E+00
Integer atomic weights                     I   N=          16
          12           1          12           1           1           1
          12           1           1           1          12           1
           1           1           1           1
Real atomic weights                        R   N=          16
  1.20000000E+01  1.00782504E+00  1.20000000E+01  1.00782504E+00  1.00782504E+00
  1.00782504E+00  1.20000000E+01  1.00782504E+00  1.00782504E+00  1.00782504E+00
  1.20000000E+01  1.00782504E+00  1.00782504E+00  1.00782504E+00  1.00782504E+00
  1.00782504E+00
Atom fragment info                         I   N=          16
           0           0           0           0           0           0
           0           0           0           0           0           0
           0           0           0           0
Atom residue num                           I   N=          16
           0           0           0           0           0           0
           0           0           0           0           0           0
           0           0           0           0
Nuclear spins                              I   N=          16
           0           1           0           1           1           1
           0           1           1           1           0           1
           1           1           1           1
Nuclear ZEff                               R   N=          16
 -3.60000000E+00 -1.00000000E+00 -3.60000000E+00 -1.00000000E+00 -1.00000000E+00
 -1.00000000E+00 -3.60000000E+00 -1.00000000E+00 -1.00000000E+00 -1.00000000E+00
 -3.60000000E+00 -1.00000000E+00 -1.00000000E+00 -1.00000000E+00 -1.00000000E+00
 -1.00000000E+00
Nuclear ZNuc                               R   N=          16
  6.00000000E+00  1.00000000E+00  6.00000000E+00  1.00000000E+00  1.00000000E+00
  1.00000000E+00  6.00000000E+00  1.00000000E+00  1.00000000E+00  1.00000000E+00
  6.00000000E+00  1.00000000E+00  1.00000000E+00  1.00000000E+00  1.00000000E+00
  1.00000000E+00
Nuclear QMom                               R   N=          16
  0.00000000E+00  0.00000000E+00  0.00000000E+00  0.00000000E+00  0.00000000E+00
  0.00000000E+00  0.00000000E+00  0.00000000E+00  0.00000000E+00  0.00000000E+00
  0.00000000E+00  0.00000000E+00  0.00000000E+00  0.00000000E+00  0.00000000E+00
  0.00000000E+00
Nuclear GFac                               R   N=          16
  0.00000000E+00  2.79284600E+00  0.00000000E+00  2.79284600E+00  2.79284600E+00
  2.79284600E+00  0.00000000E+00  2.79284600E+00  2.79284600E+00  2.79284600E+00
  0.00000000E+00  2.79284600E+00  2.79284600E+00  2.79284600E+00  2.79284600E+00
  2.79284600E+00
MicOpt                                     I   N=          16
          -1          -1          -1          -1          -1          -1
          -1          -1          -1          -1          -1          -1
          -1          -1          -1          -1
Number of residues                         I                0
Number of secondary structures             I                0
Number of contracted shells                I               40
Number of primitive shells                 I               92
Pure/Cartesian d shells                    I                1
Pure/Cartesian f shells                    I                0
Highest angular momentum                   I                2
Largest degree of contraction              I                6
Shell types                                I   N=          40
           0          -1          -1           2           0           0
           0          -1          -1           2           0           0
           0           0           0           0           0          -1
          -1           2           0           0           0           0
           0           0           0          -1          -1           2
           0           0           0           0           0           0
           0           0           0           0
Number of primitives per shell             I   N=          40
           6           3           1           1           3           1
           6           3           1           1           3           1
           3           1           3           1           6           3
           1           1           3           1           3           1
           3           1           6           3           1           1
           3           1           3           1           3           1
           3           1           3           1
Shell to atom map                          I   N=          40
           1           1           1           1           2           2
           3           3           3           3           4           4
           5           5           6           6           7           7
           7           7           8           8           9           9
          10          10          11          11          11          11
          12          12          13          13          14          14
          15          15          16          16
Primitive exponents                        R   N=          92
  3.04752488E+03  4.57369518E+02  1.03948685E+02  2.92101553E+01  9.28666296E+00
  3.16392696E+00  7.86827235E+00  1.88128854E+00  5.44249258E-01  1.68714478E-01
  8.00000000E-01  1.87311370E+01  2.82539436E+00  6.40121692E-01  1.61277759E-01
  3.04752488E+03  4.57369518E+02  1.03948685E+02  2.92101553E+01  9.28666296E+00
  3.16392696E+00  7.86827235E+00  1.88128854E+00  5.44249258E-01  1.68714478E-01
  8.00000000E-01  1.87311370E+01  2.82539436E+00  6.40121692E-01  1.61277759E-01
  1.87311370E+01  2.82539436E+00  6.40121692E-01  1.61277759E-01  1.87311370E+01
  2.82539436E+00  6.40121692E-01  1.61277759E-01  3.04752488E+03  4.57369518E+02
  1.03948685E+02  2.92101553E+01  9.28666296E+00  3.16392696E+00  7.86827235E+00
  1.88128854E+00  5.44249258E-01  1.68714478E-01  8.00000000E-01  1.87311370E+01
  2.82539436E+00  6.40121692E-01  1.61277759E-01  1.87311370E+01  2.82539436E+00
  6.40121692E-01  1.61277759E-01  1.87311370E+01  2.82539436E+00  6.40121692E-01
  1.61277759E-01  3.04752488E+03  4.57369518E+02  1.03948685E+02  2.92101553E+01
  9.28666296E+00  3.16392696E+00  7.86827235E+00  1.88128854E+00  5.44249258E-01
  1.68714478E-01  8.00000000E-01  1.87311370E+01  2.82539436E+00  6.40121692E-01
  1.61277759E-01  1.87311370E+01  2.82539436E+00  6.40121692E-01  1.61277759E-01
  1.87311370E+01  2.82539436E+00  6.40121692E-01  1.61277759E-01  1.87311370E+01
  2.82539436E+00  6.40121692E-01  1.61277759E-01  1.87311370E+01  2.82539436E+00
  6.40121692E-01  1.61277759E-01
Contraction coefficients                   R   N=          92
  1.83473713E-03  1.40373228E-02  6.88426223E-02  2.32184443E-01  4.67941348E-01
  3.62311985E-01 -1.19332420E-01 -1.60854152E-01  1.14345644E+00  1.00000000E+00
  1.00000000E+00  3.34946043E-02  2.34726953E-01  8.13757326E-01  1.00000000E+00
  1.83473713E-03  1.40373228E-02  6.88426223E-02  2.32184443E-01  4.67941348E-01
  3.62311985E-01 -1.19332420E-01 -1.60854152E-01  1.14345644E+00  1.00000000E+00
  1.00000000E+00  3.34946043E-02  2.34726953E-01  8.13757326E-01  1.00000000E+00
  3.34946043E-02  2.34726953E-01  8.13757326E-01  1.00000000E+00  3.34946043E-02
  2.34726953E-01  8.13757326E-01  1.00000000E+00  1.83473713E-03  1.40373228E-02
  6.88426223E-02  2.32184443E-01  4.67941348E-01  3.62311985E-01 -1.19332420E-01
 -1.60854152E-01  1.14345644E+00  1.00000000E+00  1.00000000E+00  3.34946043E-02
  2.34726953E-01  8.13757326E-01  1.00000000E+00  3.34946043E-02  2.34726953E-01
  8.13757326E-01  1.00000000E+00  3.34946043E-02  2.34726953E-01  8.13757326E-01
  1.00000000E+00  1.83473713E-03  1.40373228E-02  6.88426223E-02  2.32184443E-01
  4.67941348E-01  3.62311985E-01 -1.19332420E-01 -1.60854152E-01  1.14345644E+00
  1.00000000E+00  1.00000000E+00  3.34946043E-02  2.34726953E-01  8.13757326E-01
  1.00000000E+00  3.34946043E-02  2.34726953E-01  8.13757326E-01  1.00000000E+00
  3.34946043E-02  2.34726953E-01  8.13757326E-01  1.00000000E+00  3.34946043E-02
  2.34726953E-01  8.13757326E-01  1.00000000E+00  3.34946043E-02  2.34726953E-01
  8.13757326E-01  1.00000000E+00
P(S=P) Contraction coefficients            R   N=          92
  0.00000000E+00  0.00000000E+00  0.00000000E+00  0.00000000E+00  0.00000000E+00
  0.00000000E+00  6.89990666E-02  3.16423961E-01  7.44308291E-01  1.00000000E+00
  0.00000000E+00  0.00000000E+00  0.00000000E+00  0.00000000E+00  0.00000000E+00
  0.00000000E+00  0.00000000E+00  0.00000000E+00  0.00000000E+00  0.00000000E+00
  0.00000000E+00  6.89990666E-02  3.16423961E-01  7.44308291E-01  1.00000000E+00
  0.00000000E+00  0.00000000E+00  0.00000000E+00  0.00000000E+00  0.00000000E+00
  0.00000000E+00  0.00000000E+00  0.00000000E+00  0.00000000E+00  0.00000000E+00
  0.00000000E+00  0.00000000E+00  0.00000000E+00  0.00000000E+00  0.00000000E+00
  0.00000000E+00  0.00000000E+00  0.00000000E+00  0.00000000E+00  6.89990666E-02
  3.16423961E-01  7.44308291E-01  1.00000000E+00  0.00000000E+00  0.00000000E+00
  0.00000000E+00  0.00000000E+00  0.00000000E+00  0.00000000E+00  0.00000000E+00
  0.00000000E+00  0.00000000E+00  0.00000000E+00  0.00000000E+00  0.00000000E+00
  0.00000000E+00  0.00000000E+00  0.00000000E+00  0.00000000E+00  0.00000000E+00
  0.00000000E+00  0.00000000E+00  6.89990666E-02  3.16423961E-01  7.44308291E-01
  1.00000000E+00  0.00000000E+00  0.00000000E+00  0.00000000E+00  0.00000000E+00
  0.00000000E+00  0.00000000E+00  0.00000000E+00  0.00000000E+00  0.00000000E+00
  0.00000000E+00  0.00000000E+00  0.00000000E+00  0.00000000E+00  0.00000000E+00
  0.00000000E+00  0.00000000E+00  0.00000000E+00  0.00000000E+00  0.00000000E+00
  0.00000000E+00  0.00000000E+00
Coordinates of each shell                  R   N=         120
  0.00000000E+00  0.00000000E+00  0.00000000E+00  0.00000000E+00  0.00000000E+00
  0.00000000E+00  0.00000000E+00  0.00000000E+00  0.00000000E+00  0.00000000E+00
  0.00000000E+00  0.00000000E+00  1.89863809E+00  4.10422379E-01 -6.74828286E-01
  1.89863809E+00  4.10422379E-01 -6.74828286E-01  2.69133872E+00 -2.98539848E+00
  5.68496082E+00  2.69133872E+00 -2.98539848E+00  5.68496082E+00  2.69133872E+00
 -2.98539848E+00  5.68496082E+00  2.69133872E+00 -2.98539848E+00  5.68496082E+00
  4.58314789E+00 -2.57317870E+00  4.99226285E+00  4.58314789E+00 -2.57317870E+00
  4.99226285E+00  2.68548998E+00 -2.97528638E+00  7.74130188E+00  2.68548998E+00
 -2.97528638E+00  7.74130188E+00  2.08345397E+00 -4.82517398E+00  4.99621961E+00
  2.08345397E+00 -4.82517398E+00  4.99621961E+00  1.24016911E+00  3.82318015E+00
  5.68487911E+00  1.24016911E+00  3.82318015E+00  5.68487911E+00  1.24016911E+00
  3.82318015E+00  5.68487911E+00  1.24016911E+00  3.82318015E+00  5.68487911E+00
  1.23592165E+00  3.81224792E+00  7.74122119E+00  1.23592165E+00  3.81224792E+00
  7.74122119E+00  3.13685666E+00  4.21690427E+00  4.99480676E+00  3.13685666E+00
  4.21690427E+00  4.99480676E+00 -6.33024048E-02  5.25566106E+00  4.99374033E+00
 -6.33024048E-02  5.25566106E+00  4.99374033E+00 -3.93145333E+00 -8.37507098E-01
  5.68409289E+00 -3.93145333E+00 -8.37507098E-01  5.68409289E+00 -3.93145333E+00
 -8.37507098E-01  5.68409289E+00 -3.93145333E+00 -8.37507098E-01  5.68409289E+00
 -4.52177942E+00 -2.68040828E+00  4.98845420E+00 -4.52177942E+00 -2.68040828E+00
  4.98845420E+00 -3.91955259E+00 -8.40693100E-01  7.74040466E+00 -3.91955259E+00
 -8.40693100E-01  7.74040466E+00 -5.21964598E+00  6.10974326E-01  4.99769870E+00
 -5.21964598E+00  6.10974326E-01  4.99769870E+00 -1.30468538E+00  1.43916534E+00
 -6.74701768E-01 -1.30468538E+00  1.43916534E+00 -6.74701768E-01 -5.93873590E-01
 -1.84938663E+00 -6.75075216E-01 -5.93873590E-01 -1.84938663E+00 -6.75075216E-01
Num ILSW                                   I              100
ILSW                                       I   N=         100
           0           1           0           0           2           0
           0           0           0           0         402          -1
           5           0           0           0           0           0
           0           0           1           0           0           0
           1           1           0           0           0           0
           0           0      100000           0          -1           0
           0           0           0           0           0           0
           0           0           0           1           0           0
           0 -2000000000           1           0           0           0
           0           0           4          52           0           0
           0           0           5           0           0           0
           0           0           0           0           0           1
           0           0           0           0           0           0
           0           0           0           0           0           0
           0           0           0           0           0           0
           0           0           0           0           0           0
           0           0           0           0
Num RLSW                                   I               52
RLSW                                       R   N=          52
  8.00000000E-01  7.20000000E-01  1.00000000E+00  8.10000000E-01  2.00000000E-01
  0.00000000E+00  0.00000000E+00  1.00000000E+00  0.00000000E+00  0.00000000E+00
  0.00000000E+00  0.00000000E+00  1.00000000E+00  0.00000000E+00  0.00000000E+00
  0.00000000E+00  0.00000000E+00  1.00000000E+00  0.00000000E+00  0.00000000E+00
  0.00000000E+00  0.00000000E+00  1.00000000E+00  0.00000000E+00  0.00000000E+00
  0.00000000E+00  0.00000000E+00  1.00000000E+00  0.00000000E+00  0.00000000E+00
  0.00000000E+00  0.00000000E+00  1.00000000E+00  0.00000000E+00  0.00000000E+00
  0.00000000E+00  0.00000000E+00  0.00000000E+00  1.00000000E+00  1.00000000E+00
  0.00000000E+00  1.00000000E+00  0.00000000E+00  0.00000000E+00  0.00000000E+00
  0.00000000E+00  0.00000000E+00  0.00000000E+00  0.00000000E+00  0.00000000E+00
  0.00000000E+00  0.00000000E+00
MxBond                                     I                3
NBond                                      I   N=          16
           3           1           3           1           1           1
           3           1           1           1           3           1
           1           1           1           1
IBond                                      I   N=          48
           2          15          16           1           0           0
           4           5           6           3           0           0
           3           0           0           3           0           0
           8           9          10           7           0           0
           7           0           0           7           0           0
          12          13          14          11           0           0
          11           0           0          11           0           0
           1           0           0           1           0           0
RBond                                      R   N=          48
  1.00000000E+00  1.00000000E+00  1.00000000E+00  1.00000000E+00  0.00000000E+00
  0.00000000E+00  1.00000000E+00  1.00000000E+00  1.00000000E+00  1.00000000E+00
  0.00000000E+00  0.00000000E+00  1.00000000E+00  0.00000000E+00  0.00000000E+00
  1.00000000E+00  0.00000000E+00  0.00000000E+00  1.00000000E+00  1.00000000E+00
  1.00000000E+00  1.00000000E+00  0.00000000E+00  0.00000000E+00  1.00000000E+00
  0.00000000E+00  0.00000000E+00  1.00000000E+00  0.00000000E+00  0.00000000E+00
  1.00000000E+00  1.00000000E+00  1.00000000E+00  1.00000000E+00  0.00000000E+00
  0.00000000E+00  1.00000000E+00  0.00000000E+00  0.00000000E+00  1.00000000E+00
  0.00000000E+00  0.00000000E+00  1.00000000E+00  0.00000000E+00  0.00000000E+00
  1.00000000E+00  0.00000000E+00  0.00000000E+00
Virial Ratio                               R      2.010878641047193E+00
SCF Energy                                 R     -1.591990475727309E+02
Total Energy                               R     -1.591990475727309E+02
RMS Density                                R      2.235705336474930E-09
Job Status                                 I                1
Nuclear derivative order                   I                0
External E-field                           R   N=          35
  0.00000000E+00  0.00000000E+00  0.00000000E+00  0.00000000E+00  0.00000000E+00
  0.00000000E+00  0.00000000E+00  0.00000000E+00  0.00000000E+00  0.00000000E+00
  0.00000000E+00  0.00000000E+00  0.00000000E+00  0.00000000E+00  0.00000000E+00
  0.00000000E+00  0.00000000E+00  0.00000000E+00  0.00000000E+00  0.00000000E+00
  0.00000000E+00  0.00000000E+00  0.00000000E+00  0.00000000E+00  0.00000000E+00
  0.00000000E+00  0.00000000E+00  0.00000000E+00  0.00000000E+00  0.00000000E+00
  0.00000000E+00  0.00000000E+00  0.00000000E+00  0.00000000E+00  0.00000000E+00
IOpCl                                      I                0
IROHF                                      I                0
Alpha Orbital Energies                     R   N=          84
 -1.01970983E+01 -1.01970913E+01 -1.01970811E+01 -1.01970745E+01 -6.67730946E-01
 -6.64051499E-01 -6.63494105E-01 -6.63491811E-01 -3.94450439E-01 -3.93753047E-01
 -3.93749997E-01 -3.92669485E-01 -3.91724493E-01 -3.88332914E-01 -3.88329417E-01
 -3.87646983E-01 -2.03762331E-01 -1.60240308E-01 -1.27475472E-01 -1.27471549E-01
  1.02624875E-01  1.43216264E-01  1.43269174E-01  1.43273949E-01  1.75163231E-01
  1.75454861E-01  1.75460012E-01  1.88184807E-01  1.88897059E-01  1.99071226E-01
  1.99072027E-01  1.99384297E-01  4.61460029E-01  4.75973330E-01  4.75978929E-01
  4.76311234E-01  4.96945077E-01  4.97142269E-01  6.63154722E-01  6.63741431E-01
  6.63763163E-01  6.88906056E-01  6.89049889E-01  6.89054108E-01  8.22019850E-01
  8.58779923E-01  8.60587550E-01  8.60596453E-01  9.12920030E-01  9.13105674E-01
  9.13124311E-01  9.13542147E-01  9.13855855E-01  9.18674014E-01  9.18680997E-01
  9.19110939E-01  9.50608776E-01  1.01510461E+00  1.01608131E+00  1.01609474E+00
  1.67330623E+00  1.67368396E+00  1.67391443E+00  1.67408726E+00  1.67408832E+00
  1.67457132E+00  1.67457174E+00  1.67474559E+00  1.90764743E+00  1.91175441E+00
  1.91205211E+00  1.91205331E+00  2.24383809E+00  2.24392540E+00  2.24392834E+00
  2.24998317E+00  2.25006811E+00  2.28512500E+00  2.28513121E+00  2.28516005E+00
  4.04273636E+00  4.12644867E+00  4.12653227E+00  4.12654361E+00
Alpha MO coefficients                      R   N=        7056
  5.57357876E-02  2.71900138E-03  7.11294131E-05  2.55633170E-05 -4.88099715E-05
 -5.51046271E-04 -2.88515126E-04 -1.04096865E-04  1.40538750E-04 -5.66697910E-04
 -5.27085636E-04 -5.53462221E-04 -6.93911361E-06  1.11264371E-05  4.05458376E-06
  9.48135752E-06  3.28335550E-04 -1.17248849E-01 -5.75618130E-03  5.77478757E-05
  4.18046926E-05 -1.43570064E-05  1.51948576E-03 -1.80204707E-04 -2.23797636E-04
  8.92150338E-05  1.05888756E-03  1.09270931E-03  1.07723382E-03 -1.05659622E-05
  1.77904787E-05  5.71585324E-06  5.42841022E-05 -1.18002529E-04  2.38961112E-05
 -3.50874088E-04  1.14501579E-05 -4.45610979E-04 -2.97968560E-01 -1.46095584E-02
  4.59197574E-05 -6.38110112E-05 -3.81347343E-05  3.69923464E-03 -1.58182517E-04
  3.03368476E-04  1.82163005E-04  2.74662278E-03  2.80546103E-03  2.76936925E-03
  4.03305253E-06  1.94915708E-05  1.36221756E-05  6.93383247E-05 -8.18412067E-04
  1.00059240E-04 -5.85810037E-04  6.41764880E-05 -8.67643812E-04  9.38123912E-01
  4.59466963E-02 -3.02221013E-04 -5.40628028E-05  1.42757202E-04 -1.11928568E-02
  1.07641594E-03  1.87086520E-04 -4.69782344E-04 -8.91895726E-03 -8.78344317E-03
 -8.81076315E-03 -3.20244940E-05  6.12972151E-05  1.56723616E-05 -2.56821414E-04
  2.28461639E-03 -2.47084808E-04  2.38667101E-03 -2.50468233E-04  2.33246708E-03
 -2.75263949E-05  4.82046777E-05 -3.33497440E-05  3.30102229E-07 -1.02279313E-01
 -5.03441954E-03 -1.59534766E-06 -5.34823143E-05 -4.02786241E-05  1.45511211E-03
  9.95828141E-08  2.16917115E-04  1.68100121E-05  9.12604912E-04  8.95034205E-04
  9.23681806E-04 -1.35921656E-05 -6.94517248E-07 -8.77846195E-06  1.99846882E-05
 -3.10928547E-04  1.02755322E-02  4.79979436E-04  2.93424673E-05 -8.55963196E-05
 -2.02482588E-05  1.06019102E-04 -3.20256969E-05  2.53349647E-04  1.29149162E-04
 -1.47707487E-04 -1.61541670E-04 -1.31976027E-04 -7.89457710E-06 -5.44386841E-06
 -7.20266590E-06 -9.21722814E-06 -2.03329028E-05 -2.34241904E-05 -1.28037365E-04
  1.28454788E-05  1.48080572E-04  9.39008040E-01  4.59780755E-02  1.14763067E-04
  3.42978804E-04  1.02010072E-04 -1.10949108E-02 -4.29049883E-04 -1.13038968E-03
 -3.49429132E-04 -8.83531621E-03 -8.95019804E-03 -8.82756046E-03 -4.77251518E-05
 -1.28899416E-05 -5.53034227E-05 -2.58353993E-04  2.27644059E-03 -2.44218861E-04
  2.38402603E-03 -2.57020911E-04  2.31431963E-03  3.05591233E-01  1.49469203E-02
 -1.59728356E-04 -8.71336207E-05  2.72040568E-05 -3.46378153E-03  4.65761505E-04
  3.15907135E-04 -2.55495117E-05 -2.94473172E-03 -2.91975357E-03 -2.89815726E-03
 -2.12272390E-05  2.15179585E-05 -8.62829580E-06 -6.13245962E-05  9.13009572E-04
 -9.83524061E-05  6.40713523E-04 -9.36794176E-05  6.67922307E-04  9.69584122E-06
 -3.87691830E-04  4.19017463E-05 -1.42845325E-04 -2.72293590E-01 -1.33543024E-02
 -3.69006074E-05  5.04984219E-05  4.16928197E-05  3.41680319E-03  1.35293966E-04
 -2.09381650E-04 -2.39753946E-04  2.50973192E-03  2.51192159E-03  2.55929764E-03
  1.94519831E-05 -6.79758122E-06  8.02433930E-06  6.35839664E-05 -7.54926084E-04
  9.45336701E-01  4.62973809E-02  2.23829173E-04 -2.52660225E-04  9.13699065E-05
 -1.12569420E-02 -8.06976083E-04  8.43940643E-04 -3.26725511E-04 -8.92428379E-03
 -8.94233207E-03 -8.86654014E-03  8.17883138E-05 -3.57497818E-05  4.46871082E-05
 -2.46114579E-04  2.39736826E-03 -2.59408486E-04  2.29656271E-03 -2.55290977E-04
  2.35684285E-03 -7.58975176E-02 -3.73239902E-03 -3.37441132E-05  4.38281268E-05
 -4.30860509E-05  1.05969993E-03  1.60276740E-04 -1.25210231E-04  1.99438535E-04
  6.70308697E-04  6.80044496E-04  6.95096854E-04  1.80161982E-05 -9.08136965E-06
  1.02501725E-05 -1.07541671E-06 -3.47329332E-04  1.20746911E-05 -2.46253495E-04
  4.16581716E-05 -2.55499144E-05  1.10210840E-01  5.38440888E-03 -1.02999325E-04
  3.65020858E-05 -1.36783111E-05 -1.19639402E-03  3.06062450E-04 -1.73442048E-04
  1.03823444E-04 -1.08380239E-03 -1.06739062E-03 -1.04692749E-03  1.19428038E-05
  3.36819928E-06  1.49910588E-05 -4.02202085E-05  1.88774261E-04 -4.79098042E-05
  1.37310987E-04 -5.06955286E-06  4.58190305E-04  9.16742791E-05 -5.32090779E-04
  5.62272142E-05 -8.01473791E-04  9.47621633E-01  4.63964369E-02  1.61209655E-06
  1.08376475E-05 -3.89694690E-04 -1.11646779E-02  4.54361676E-05 -3.30013893E-05
  1.28711171E-03 -8.90435610E-03 -8.90627694E-03 -9.06886555E-03  4.09051860E-06
  3.03851993E-06  2.35716316E-06 -2.61840650E-04  2.31698835E-03  2.79613522E-01
  1.36706693E-02  9.19753546E-05 -1.15015693E-04  1.10934126E-04 -3.11435228E-03
 -2.41714775E-04  3.01193920E-04 -3.85033736E-04 -2.67553029E-03 -2.68572562E-03
 -2.69309034E-03  3.11286804E-05 -1.28692137E-05  1.26497096E-05 -8.98333977E-05
  5.80689824E-04 -5.72060339E-05  8.27982042E-04 -8.74607038E-05  6.05755102E-04
  9.70376349E-02  4.72634980E-03  1.29044131E-05  9.27940086E-05  8.68797181E-05
 -9.12330617E-04  1.27787683E-06 -1.99451699E-04 -2.90904384E-04 -9.50748631E-04
 -9.74909503E-04 -9.83671338E-04 -4.83890463E-06 -5.52272976E-06 -5.09380216E-06
 -1.10216249E-05  3.55257327E-04 -4.34534311E-05  1.07639189E-04 -3.45917667E-05
  1.80256509E-04  9.44248925E-03  4.35425847E-04 -6.28263661E-05 -2.98390264E-06
  7.40035707E-05  1.50510075E-04  1.04451521E-04 -2.00697984E-05 -2.48293918E-04
 -1.43870127E-04 -1.33779887E-04 -1.63751519E-04  3.57921896E-07 -5.29452537E-07
  2.61807980E-06 -1.90438938E-05 -9.70320874E-05  1.07699908E-05  1.28356752E-04
 -1.23740955E-05 -4.91680027E-05 -2.49831176E-04  2.37982660E-03 -2.56213912E-04
  2.33171203E-03 -9.85780413E-02  1.94110561E-01  1.03014866E-03  2.24262183E-04
 -4.16150867E-02  1.83695790E-01  4.60136214E-04  1.01453360E-04 -1.39221541E-02
  2.14085440E-03  2.13683561E-03 -6.19855595E-03  1.12886180E-06 -3.90799304E-05
 -6.96456664E-06  7.62693248E-02  2.48836909E-02 -9.85952977E-02  1.94145553E-01
  2.57141752E-02 -2.98823003E-02  1.33803623E-02  1.83727800E-01  8.53864279E-03
 -1.00832753E-02  4.42229208E-03 -1.20758388E-03 -1.91402811E-03  1.20069307E-03
  4.25521328E-03 -2.04379178E-03  2.25332638E-03  7.52445564E-02  2.43244430E-02
  7.52445451E-02  2.43245184E-02  7.62828215E-02  2.48873672E-02 -9.87704245E-02
  1.94493718E-01  1.13161010E-02  3.78397180E-02  1.34092006E-02  1.84053334E-01
  3.69278564E-03  1.27209795E-02  4.43297605E-03  1.42219687E-03 -4.54844195E-03
  1.20272717E-03 -2.54098540E-03 -9.49582035E-04 -2.89719422E-03  7.53801692E-02
  2.43655915E-02  7.53799349E-02  2.43646357E-02  7.64195639E-02  2.49285712E-02
 -9.88693488E-02  1.94690376E-01 -3.81447613E-02 -8.12366896E-03  1.49030368E-02
  1.84237096E-01 -1.27348632E-02 -2.71164098E-03  5.10591822E-03 -4.98820772E-03
  1.82033859E-03  1.24247426E-03 -1.75464671E-03  2.93863063E-03  6.26122598E-04
  7.54522337E-02  2.43848895E-02  7.64988148E-02  2.49524769E-02  7.54579744E-02
  2.43897525E-02  7.52299863E-02  2.43182694E-02  7.52341837E-02  2.43213628E-02
 -9.80797000E-02  1.94351921E-01  1.11216254E-04  2.41536780E-05 -4.32869800E-02
  1.83365460E-01 -1.51583236E-03 -3.33806454E-04 -1.84141983E-02  2.32550350E-03
  2.33596450E-03 -6.26635844E-03 -3.27936843E-06 -1.58263708E-04 -3.28682379E-05
  7.64200605E-02  2.30169884E-02  9.86318494E-02 -1.95447362E-01 -2.74237875E-02
  3.05659892E-02 -1.44502140E-02 -1.84392153E-01 -1.25237492E-02  1.18815582E-02
 -6.88832867E-03  1.19631469E-03  1.75942818E-03 -1.34255622E-03 -4.40064590E-03
  2.18245496E-03 -2.34311525E-03 -7.61904998E-02 -2.28049830E-02 -7.61865501E-02
 -2.28049270E-02 -7.68541006E-02 -2.31496913E-02  9.96101956E-02 -1.97389284E-01
 -1.26970183E-02 -3.94984557E-02 -1.45960502E-02 -1.86211334E-01 -6.63382016E-03
 -1.61422258E-02 -6.94955038E-03 -1.56512899E-03  4.54947869E-03 -1.35627994E-03
  2.72128166E-03  1.04742952E-03  3.06027031E-03 -7.69437922E-02 -2.30312854E-02
 -7.69493811E-02 -2.30357352E-02 -7.76234802E-02 -2.33813646E-02 -1.00079480E-01
  1.98321552E-01 -4.07061634E-02 -8.67653072E-03  1.48610587E-02  1.87082485E-01
 -1.78469295E-02 -3.80601685E-03  4.84168715E-03 -5.16787502E-03  2.04286615E-03
  1.48991589E-03 -1.85887406E-03  2.98961080E-03  6.37916803E-04  7.73093055E-02