PCl3                                                                    
SP        RB3LYP                                                      6-31G(d)            
Number of atoms                            I                5
Info1-9                                    I   N=           9
          14          14           0           0           0         110
           1          18        -502
Full Title                                 C   N=           1
PCl3        
Route                                      C   N=           2
# nosymm b3lyp/6-31G*   
Charge                                     I                1
Multiplicity                               I                1
Number of electrons                        I               66
Number of alpha electrons                  I               33
Number of beta electrons                   I               33
Number of basis functions                  I               78
Number of independent functions            I               78
Number of point charges in /Mol/           I                0
Number of translation vectors              I                0
Atomic numbers                             I   N=           5
           1          15          17          17          17
Nuclear charges                            R   N=           5
  1.00000000E+00  1.50000000E+01  1.70000000E+01  1.70000000E+01  1.70000000E+01
Current cartesian coordinates              R   N=          15
  0.00000000E+00  0.00000000E+00  0.00000000E+00  0.00000000E+00  0.00000000E+00
  2.64019306E+00 -1.75591462E+00  3.04391415E+00  3.77650428E+00 -1.75857913E+00
 -3.04238347E+00  3.77650428E+00  3.51411580E+00 -1.53067816E-03  3.77589956E+00
Number of symbols in /Mol/                 I                0
Force Field                                I                0
Atom Types                                 C   N=           5
                                                            
Int Atom Types                             I   N=           5
           0           0           0           0           0
MM charges                                 R   N=           5
  0.00000000E+00  0.00000000E+00  0.00000000E+00  0.00000000E+00  0.00000000E+00
Integer atomic weights                     I   N=           5
           1          31          35          35          35
Real atomic weights                        R   N=           5
  1.00782504E+00  3.09737634E+01  3.49688527E+01  3.49688527E+01  3.49688527E+01
Atom fragment info                         I   N=           5
           0           0           0           0           0
Atom residue num                           I   N=           5
           0           0           0           0           0
Nuclear spins                              I   N=           5
           1           1           3           3           3
Nuclear ZEff                               R   N=           5
 -1.00000000E+00 -1.29400000E+01 -1.42400000E+01 -1.42400000E+01 -1.42400000E+01
Nuclear ZNuc                               R   N=           5
  1.00000000E+00  1.50000000E+01  1.70000000E+01  1.70000000E+01  1.70000000E+01
Nuclear QMom                               R   N=           5
  0.00000000E+00  0.00000000E+00 -8.16500000E+00 -8.16500000E+00 -8.16500000E+00
Nuclear GFac                               R   N=           5
  2.79284600E+00  1.13160000E+00  8.21874000E-01  8.21874000E-01  8.21874000E-01
MicOpt                                     I   N=           5
          -1          -1          -1          -1          -1
Number of residues                         I                0
Number of secondary structures             I                0
Number of contracted shells                I               22
Number of primitive shells                 I               72
Pure/Cartesian d shells                    I                1
Pure/Cartesian f shells                    I                0
Highest angular momentum                   I                2
Largest degree of contraction              I                6
Shell types                                I   N=          22
           0           0           0          -1          -1          -1
           2           0          -1          -1          -1           2
           0          -1          -1          -1           2           0
          -1          -1          -1           2
Number of primitives per shell             I   N=          22
           3           1           6           6           3           1
           1           6           6           3           1           1
           6           6           3           1           1           6
           6           3           1           1
Shell to atom map                          I   N=          22
           1           1           2           2           2           2
           2           3           3           3           3           3
           4           4           4           4           4           5
           5           5           5           5
Primitive exponents                        R   N=          72
  1.87311370E+01  2.82539436E+00  6.40121692E-01  1.61277759E-01  1.94133000E+04
  2.90942000E+03  6.61364000E+02  1.85759000E+02  5.91943000E+01  2.00310000E+01
  3.39478000E+02  8.10101000E+01  2.58780000E+01  9.45221000E+00  3.66566000E+00
  1.46746000E+00  2.15623000E+00  7.48997000E-01  2.83145000E-01  9.98317000E-02
  5.50000000E-01  2.51801000E+04  3.78035000E+03  8.60474000E+02  2.42145000E+02
  7.73349000E+01  2.62470000E+01  4.91765000E+02  1.16984000E+02  3.74153000E+01
  1.37834000E+01  5.45215000E+00  2.22588000E+00  3.18649000E+00  1.14427000E+00
  4.20377000E-01  1.42657000E-01  7.50000000E-01  2.51801000E+04  3.78035000E+03
  8.60474000E+02  2.42145000E+02  7.73349000E+01  2.62470000E+01  4.91765000E+02
  1.16984000E+02  3.74153000E+01  1.37834000E+01  5.45215000E+00  2.22588000E+00
  3.18649000E+00  1.14427000E+00  4.20377000E-01  1.42657000E-01  7.50000000E-01
  2.51801000E+04  3.78035000E+03  8.60474000E+02  2.42145000E+02  7.73349000E+01
  2.62470000E+01  4.91765000E+02  1.16984000E+02  3.74153000E+01  1.37834000E+01
  5.45215000E+00  2.22588000E+00  3.18649000E+00  1.14427000E+00  4.20377000E-01
  1.42657000E-01  7.50000000E-01
Contraction coefficients                   R   N=          72
  3.34946043E-02  2.34726953E-01  8.13757326E-01  1.00000000E+00  1.85159892E-03
  1.42061917E-02  6.99994593E-02  2.40078860E-01  4.84761718E-01  3.35199805E-01
 -2.78217010E-03 -3.60499014E-02 -1.16631004E-01  9.68328036E-02  6.14418023E-01
  4.03798015E-01 -2.52924114E-01  3.28518447E-02  1.08125476E+00  1.00000000E+00
  1.00000000E+00  1.83295985E-03  1.40341988E-02  6.90973943E-02  2.37451980E-01
  4.83033960E-01  3.39855972E-01 -2.29739142E-03 -3.07137189E-02 -1.12528069E-01
  4.50163278E-02  5.89353363E-01  4.65206287E-01 -2.51828028E-01  6.15892514E-02
  1.06018433E+00  1.00000000E+00  1.00000000E+00  1.83295985E-03  1.40341988E-02
  6.90973943E-02  2.37451980E-01  4.83033960E-01  3.39855972E-01 -2.29739142E-03
 -3.07137189E-02 -1.12528069E-01  4.50163278E-02  5.89353363E-01  4.65206287E-01
 -2.51828028E-01  6.15892514E-02  1.06018433E+00  1.00000000E+00  1.00000000E+00
  1.83295985E-03  1.40341988E-02  6.90973943E-02  2.37451980E-01  4.83033960E-01
  3.39855972E-01 -2.29739142E-03 -3.07137189E-02 -1.12528069E-01  4.50163278E-02
  5.89353363E-01  4.65206287E-01 -2.51828028E-01  6.15892514E-02  1.06018433E+00
  1.00000000E+00  1.00000000E+00
P(S=P) Contraction coefficients            R   N=          72
  0.00000000E+00  0.00000000E+00  0.00000000E+00  0.00000000E+00  0.00000000E+00
  0.00000000E+00  0.00000000E+00  0.00000000E+00  0.00000000E+00  0.00000000E+00
  4.56461619E-03  3.36935719E-02  1.39754883E-01  3.39361717E-01  4.50920624E-01
  2.38585801E-01 -1.77653127E-02  2.74058196E-01  7.85421563E-01  1.00000000E+00
  0.00000000E+00  0.00000000E+00  0.00000000E+00  0.00000000E+00  0.00000000E+00
  0.00000000E+00  0.00000000E+00  3.98940088E-03  3.03177067E-02  1.29880029E-01
  3.27951072E-01  4.53527100E-01  2.52154056E-01 -1.42993147E-02  3.23572333E-01
  7.43507765E-01  1.00000000E+00  0.00000000E+00  0.00000000E+00  0.00000000E+00
  0.00000000E+00  0.00000000E+00  0.00000000E+00  0.00000000E+00  3.98940088E-03
  3.03177067E-02  1.29880029E-01  3.27951072E-01  4.53527100E-01  2.52154056E-01
 -1.42993147E-02  3.23572333E-01  7.43507765E-01  1.00000000E+00  0.00000000E+00
  0.00000000E+00  0.00000000E+00  0.00000000E+00  0.00000000E+00  0.00000000E+00
  0.00000000E+00  3.98940088E-03  3.03177067E-02  1.29880029E-01  3.27951072E-01
  4.53527100E-01  2.52154056E-01 -1.42993147E-02  3.23572333E-01  7.43507765E-01
  1.00000000E+00  0.00000000E+00
Coordinates of each shell                  R   N=          66
  0.00000000E+00  0.00000000E+00  0.00000000E+00  0.00000000E+00  0.00000000E+00
  0.00000000E+00  0.00000000E+00  0.00000000E+00  2.64019306E+00  0.00000000E+00
  0.00000000E+00  2.64019306E+00  0.00000000E+00  0.00000000E+00  2.64019306E+00
  0.00000000E+00  0.00000000E+00  2.64019306E+00  0.00000000E+00  0.00000000E+00
  2.64019306E+00 -1.75591462E+00  3.04391415E+00  3.77650428E+00 -1.75591462E+00
  3.04391415E+00  3.77650428E+00 -1.75591462E+00  3.04391415E+00  3.77650428E+00
 -1.75591462E+00  3.04391415E+00  3.77650428E+00 -1.75591462E+00  3.04391415E+00
  3.77650428E+00 -1.75857913E+00 -3.04238347E+00  3.77650428E+00 -1.75857913E+00
 -3.04238347E+00  3.77650428E+00 -1.75857913E+00 -3.04238347E+00  3.77650428E+00
 -1.75857913E+00 -3.04238347E+00  3.77650428E+00 -1.75857913E+00 -3.04238347E+00
  3.77650428E+00  3.51411580E+00 -1.53067816E-03  3.77589956E+00  3.51411580E+00
 -1.53067816E-03  3.77589956E+00  3.51411580E+00 -1.53067816E-03  3.77589956E+00
  3.51411580E+00 -1.53067816E-03  3.77589956E+00  3.51411580E+00 -1.53067816E-03
  3.77589956E+00
Num ILSW                                   I              100
ILSW                                       I   N=         100
           0           1           0           0           2           0
           0           0           0           0         402          -1
           5           0           0           0           0           0
           0           0           1           0           0           0
           1           1           0           0           0           0
           0           0      100000           0          -1           0
           0           0           0           0           0           0
           0           0           0           1           0           0
           0 -2000000000           1           0           0           0
           0           0           4          52           0           0
           0           0           5           0           0           0
           0           0           0           0           0           1
           0           0           0           0           0           0
           0           0           0           0           0           0
           0           0           0           0           0           0
           0           0           0           0           0           0
           0           0           0           0
Num RLSW                                   I               52
RLSW                                       R   N=          52
  8.00000000E-01  7.20000000E-01  1.00000000E+00  8.10000000E-01  2.00000000E-01
  0.00000000E+00  0.00000000E+00  1.00000000E+00  0.00000000E+00  0.00000000E+00
  0.00000000E+00  0.00000000E+00  1.00000000E+00  0.00000000E+00  0.00000000E+00
  0.00000000E+00  0.00000000E+00  1.00000000E+00  0.00000000E+00  0.00000000E+00
  0.00000000E+00  0.00000000E+00  1.00000000E+00  0.00000000E+00  0.00000000E+00
  0.00000000E+00  0.00000000E+00  1.00000000E+00  0.00000000E+00  0.00000000E+00
  0.00000000E+00  0.00000000E+00  1.00000000E+00  0.00000000E+00  0.00000000E+00
  0.00000000E+00  0.00000000E+00  0.00000000E+00  1.00000000E+00  1.00000000E+00
  0.00000000E+00  1.00000000E+00  0.00000000E+00  0.00000000E+00  0.00000000E+00
  0.00000000E+00  0.00000000E+00  0.00000000E+00  0.00000000E+00  0.00000000E+00
  0.00000000E+00  0.00000000E+00
MxBond                                     I                4
NBond                                      I   N=           5
           1           4           1           1           1
IBond                                      I   N=          20
           2           0           0           0           1           3
           4           5           2           0           0           0
           2           0           0           0           2           0
           0           0
RBond                                      R   N=          20
  1.00000000E+00  0.00000000E+00  0.00000000E+00  0.00000000E+00  1.00000000E+00
  1.00000000E+00  1.00000000E+00  1.00000000E+00  1.00000000E+00  0.00000000E+00
  0.00000000E+00  0.00000000E+00  1.00000000E+00  0.00000000E+00  0.00000000E+00
  0.00000000E+00  1.00000000E+00  0.00000000E+00  0.00000000E+00  0.00000000E+00
Virial Ratio                               R      2.002929226290062E+00
SCF Energy                                 R     -1.722273060305230E+03
Total Energy                               R     -1.722273060305230E+03
RMS Density                                R      4.308838131667435E-09
Job Status                                 I                1
Nuclear derivative order                   I                0
External E-field                           R   N=          35
  0.00000000E+00  0.00000000E+00  0.00000000E+00  0.00000000E+00  0.00000000E+00
  0.00000000E+00  0.00000000E+00  0.00000000E+00  0.00000000E+00  0.00000000E+00
  0.00000000E+00  0.00000000E+00  0.00000000E+00  0.00000000E+00  0.00000000E+00
  0.00000000E+00  0.00000000E+00  0.00000000E+00  0.00000000E+00  0.00000000E+00
  0.00000000E+00  0.00000000E+00  0.00000000E+00  0.00000000E+00  0.00000000E+00
  0.00000000E+00  0.00000000E+00  0.00000000E+00  0.00000000E+00  0.00000000E+00
  0.00000000E+00  0.00000000E+00  0.00000000E+00  0.00000000E+00  0.00000000E+00
IOpCl                                      I                0
IROHF                                      I                0
Alpha Orbital Energies                     R   N=          78
 -1.01805816E+02 -1.01805801E+02 -1.01805801E+02 -7.74958996E+01 -9.72534972E+00
 -9.72533574E+00 -9.72532917E+00 -7.48923909E+00 -7.48922613E+00 -7.48921623E+00
 -7.47893315E+00 -7.47891603E+00 -7.47891006E+00 -7.47878051E+00 -7.47876509E+00
 -7.47876457E+00 -6.95662161E+00 -5.11955309E+00 -5.11955306E+00 -5.11626308E+00
 -1.17438142E+00 -1.09564573E+00 -1.09562082E+00 -8.76399495E-01 -7.30805718E-01
 -7.10095087E-01 -7.10080512E-01 -5.97510658E-01 -5.97508220E-01 -5.77617277E-01
 -5.74173662E-01 -5.74157526E-01 -5.55436931E-01 -2.89448936E-01 -2.48817011E-01
 -2.48776858E-01 -1.89639609E-01  3.75452300E-03  3.77009731E-03  2.52506032E-02
  4.66126363E-02  1.61261073E-01  1.61261691E-01  1.73635461E-01  1.73648270E-01
  1.95282433E-01  2.49199159E-01  2.64684531E-01  2.64685728E-01  2.86289022E-01
  2.86310062E-01  3.12628871E-01  3.47080784E-01  3.47082143E-01  4.44583570E-01
  4.63268856E-01  4.93311166E-01  4.93326965E-01  5.99080960E-01  6.04131036E-01
  6.12576739E-01  6.12584178E-01  6.18404693E-01  6.28496172E-01  6.28507541E-01
  6.73368055E-01  6.73393394E-01  7.36480272E-01  7.79180745E-01  7.79187139E-01
  8.25688490E-01  1.02878473E+00  1.08252053E+00  1.08252250E+00  3.05603622E+00
  4.00150508E+00  4.00152623E+00  4.00731540E+00
Alpha MO coefficients                      R   N=        6084
  1.95962001E-06 -1.41011342E-05  2.94543387E-06 -1.55310746E-05  1.18330460E-06
 -3.50085830E-10  1.40933978E-07  1.40995704E-04  8.73053693E-05 -2.50696985E-08
  3.03105382E-05 -1.03203515E-04 -1.40868324E-04  4.06801373E-08 -1.06593983E-05
 -5.33976732E-06 -4.06657223E-05 -4.55885394E-05 -2.07666092E-08  1.46325518E-05
 -4.15306827E-09  9.26109532E-03  1.46265107E-04  1.12946617E-06 -7.68611516E-07
 -2.56482415E-07 -1.82564960E-04  2.15872120E-07 -5.18402860E-07  9.17202845E-07
 -5.79280806E-05 -2.17161677E-05  2.72261078E-05  6.36617662E-07  6.96557065E-05
  8.02288197E-05  8.40974495E-05  7.04144282E-06 -2.30011413E-06  6.60145764E-07
  9.09259756E-03  1.43700410E-04  1.12521538E-06  7.59376453E-07 -2.53376343E-07
 -1.79003570E-04  2.21742289E-07  5.27284108E-07  9.14081675E-07 -5.82312684E-05
 -2.17493932E-05 -2.72253363E-05  6.42365445E-07  6.83710239E-05  7.89642570E-05
  8.28229126E-05 -7.02865513E-06 -2.30111601E-06 -6.59429870E-07  9.95912231E-01
  1.51642626E-02 -5.70955797E-05  2.49429746E-08 -1.84421407E-05 -2.10390616E-02
  5.95457444E-05 -2.59628299E-08  1.92406696E-05  1.71842547E-03 -8.47769652E-05
  3.60661029E-08 -3.30491415E-05  7.53019951E-03  7.55033468E-03  7.54831554E-03
  1.16349476E-08 -6.12622581E-06  2.38809844E-09  2.49779758E-06 -1.78480188E-05
  3.73075683E-06 -1.96762828E-05 -7.86323494E-07  5.67238165E-07  1.74973964E-07
  1.78536036E-04 -5.84211351E-05  4.21094549E-05  3.84176073E-05 -1.30741699E-04
  9.42349046E-05 -6.79300699E-05 -1.35071140E-05 -4.09356676E-05 -1.72685106E-05
 -5.77274735E-05 -9.82618962E-06 -9.80966244E-06  7.06657065E-06  9.23102812E-01
  1.40574303E-02  2.63618731E-05 -4.61608503E-05 -1.71330892E-05 -1.94964293E-02
 -2.73613515E-05  4.74932496E-05  1.80965454E-05  1.56740152E-03  3.49823164E-05
 -5.65673623E-05 -3.03215389E-05  6.99835482E-03  6.98297157E-03  7.00123920E-03
  8.47372210E-06  3.09694841E-06 -4.06766533E-06  3.73827745E-01  5.69681327E-03
  1.05522927E-05  1.93815955E-05 -7.00313961E-06 -7.88547960E-03 -1.06256178E-05
 -1.85289313E-05  7.89175243E-06  5.78522529E-04  4.34094334E-06 -2.36118566E-06
 -1.15707471E-05  2.84395648E-03  2.82536748E-03  2.84585741E-03 -1.89870818E-06
  1.71416719E-06 -1.83761364E-07 -1.19964534E-02 -1.75885859E-04 -2.14103662E-07
  3.30986381E-07  1.12229248E-07  2.70311602E-04 -2.15465220E-06 -3.98346971E-08
  7.24327190E-07 -1.16088791E-04  4.64852383E-05 -2.91793325E-06  1.59277721E-06
 -8.77499785E-05 -8.14479890E-05 -7.29746323E-05  4.90645731E-06  2.37502449E-06
 -9.27546327E-07  1.05815792E-06 -7.56005294E-06  1.58027591E-06 -8.33459044E-06
 -3.33373126E-07 -1.33789667E-06  7.40212413E-08  7.56229673E-05 -2.47803344E-05
 -9.93648902E-05  1.62731434E-05 -5.53801617E-05  3.99710825E-05  1.60292977E-04
 -5.72140540E-06 -1.73146553E-05 -7.33757126E-06 -2.44517831E-05  2.32377956E-05
 -4.16113659E-06 -1.66754883E-05 -3.73905108E-01 -5.68843527E-03 -1.08733183E-05
  1.77268181E-05  6.84957048E-06  7.91095308E-03  1.17387735E-05 -2.02052110E-05
 -6.54574706E-06 -7.13179376E-04 -2.78511060E-05  5.80961957E-05  1.32684941E-05
 -2.82099324E-03 -2.83197805E-03 -2.82114327E-03 -5.59208593E-06 -6.13984437E-07
  4.19524842E-06  9.23135819E-01  1.40540635E-02  2.65387233E-05  4.54637986E-05
 -1.70708662E-05 -1.95067787E-02 -2.78607517E-05 -4.81438567E-05  1.75515122E-05
  1.62192666E-03  4.45699153E-05  8.10071747E-05 -3.10088631E-05  6.98905090E-03
  6.98567959E-03  6.99124510E-03 -9.98191937E-06  2.65600404E-06  5.83816538E-06
 -4.95091839E-03 -7.25147092E-05 -9.84341062E-08 -7.81254180E-07  4.51360123E-08
  1.11738876E-04 -9.04929377E-07  9.64109289E-08  3.09210780E-07 -4.89381222E-05
  1.96781435E-05  6.83384065E-06  6.70252690E-07 -3.61924090E-05 -3.35005212E-05
 -2.99228142E-05 -1.15768758E-05  1.00611615E-06  2.18743823E-06  1.84950611E-04
 -4.27040760E-04  9.96255544E-01  1.41299895E-02  1.47254655E-09  3.06247239E-13
  3.94068229E-05 -2.68901114E-02  8.86553048E-09  1.25246306E-10 -6.20897440E-05
  5.09617455E-03 -3.12202673E-08  4.42999168E-10  1.54367781E-04  9.31111222E-03
  9.31111499E-03  9.29872459E-03 -9.51038933E-11 -8.09166715E-10  7.35215811E-11
  6.05640427E-06  3.13735750E-05 -1.17238686E-06  2.02947886E-06 -2.97909618E-07
  2.57497870E-04  7.83428131E-05 -1.35792648E-04 -4.45426840E-05 -7.27345589E-04
 -7.27497398E-05  1.26075499E-04  1.10091843E-05  2.67906286E-05  2.29232882E-05
  2.93566725E-05  3.86815072E-06 -1.45602834E-06  2.52171198E-06  6.05635586E-06
  3.13733059E-05 -1.17439121E-06 -2.02881270E-06 -2.97788162E-07  2.57494152E-04
  7.84621441E-05  1.35724931E-04 -4.45428335E-05 -7.27344379E-04 -7.28608336E-05
 -1.26012761E-04  1.10093148E-05  2.67857661E-05  2.29317160E-05  2.93573596E-05
 -3.87060859E-06 -1.45880881E-06 -2.52141598E-06  6.05736580E-06  3.13795191E-05
  2.33581133E-06 -9.98237822E-10 -3.03057917E-07  2.57572943E-04 -1.56763633E-04
  6.81698123E-08 -4.45002962E-05 -7.27337072E-04  1.45539058E-04 -6.30995326E-08
  1.09394148E-05  2.09199160E-05  2.87174421E-05  2.93498365E-05  3.85728847E-09
  2.89413884E-06 -1.25148425E-09 -8.50608837E-05 -8.95820913E-04 -2.32086315E-05
 -1.60133663E-04  1.72607864E-04 -5.61334721E-07  3.16667537E-05 -7.92636493E-04
 -6.72891176E-04  2.18861074E-06 -1.38463037E-04  7.23354707E-03  4.51776019E-03
 -1.46866514E-05  1.01127496E-03 -7.27517827E-04 -2.38407194E-05 -2.55696615E-04
 -7.90471585E-07 -2.22786661E-04  7.25163788E-07  4.10194707E-02 -1.47315896E-01
 -3.79782014E-04  6.76174390E-04  2.51796385E-04 -1.07369572E-02 -2.18455663E-04
  2.77228607E-04  1.09402758E-04  1.62189637E-03 -2.73760996E-04 -1.76168144E-04
 -1.93422336E-04  2.33171277E-03  2.25490805E-03  2.33629297E-03  1.07157848E-04
  7.86423847E-05  7.05984599E-06  3.99811306E-02 -1.43586286E-01 -3.70287500E-04
 -6.58452658E-04  2.45298758E-04 -1.04624941E-02 -2.15839890E-04 -2.71764396E-04
  1.07392665E-04  1.55601998E-03 -2.81212445E-04  1.65370235E-04 -1.88194524E-04
  2.27230729E-03  2.19703277E-03  2.27685652E-03 -1.06129451E-04  7.85118896E-05
 -7.80927446E-06 -2.78798359E-01  1.00143645E+00 -5.41642044E-03  2.32629915E-06
 -1.74809609E-03  7.37992409E-02 -1.49710932E-03  8.17290841E-07 -5.09524030E-04
 -1.86696204E-02  4.09933600E-03 -7.27479438E-07  1.41724557E-03 -1.55196189E-02
 -1.60172461E-02 -1.59715095E-02 -2.99138431E-07  1.67203559E-04 -3.06136615E-07
 -5.40960135E-06 -5.69810776E-05 -1.47618021E-06 -1.01851073E-05 -1.49412272E-06
  1.88338081E-04  2.01557174E-06 -5.04114116E-05  5.82465972E-06 -7.34043075E-04
 -8.81104330E-06  4.60067358E-04 -3.90863173E-05  4.92898031E-03  6.43409407E-05
 -2.03460622E-05 -2.74451535E-05 -1.62688176E-05  4.43366675E-04  1.92961545E-06
 -2.43140370E-04 -2.06351974E-01  7.41196183E-01  2.00173121E-03 -3.45845530E-03
 -1.29136815E-03  5.45507787E-02  5.64263980E-04 -1.04141060E-03 -3.97536565E-04
 -1.31539107E-02 -1.51772324E-03  2.22693352E-03  1.04025735E-03 -1.17730865E-02
 -1.15374852E-02 -1.18131601E-02 -2.16429127E-04 -2.57962760E-05  1.33910915E-04
  1.96019915E-01 -7.04081739E-01 -1.90360435E-03 -3.28139829E-03  1.22610360E-03
 -5.18063299E-02 -5.41681465E-04 -1.00213729E-03  3.81345394E-04  1.23736863E-02
  1.42569802E-03  2.05119417E-03 -9.86510733E-04  1.11843602E-02  1.09532686E-02
  1.12201943E-02 -2.12253441E-04  2.20131075E-05  1.29760025E-04 -2.25010705E-03
  8.08353373E-03 -4.47437940E-05  1.13142632E-05 -1.43772467E-05  6.01472068E-04
 -5.86092157E-06 -6.40178850E-05 -2.44801747E-06 -2.05131992E-04  6.13313693E-05
 -4.10341273E-04  1.21719379E-05 -1.29581214E-04 -1.27531986E-04 -1.29561705E-04
  1.92656276E-05  9.74016448E-07  9.04372231E-05 -1.94071460E-04 -2.04399538E-03
 -5.29544655E-05 -3.65402429E-04 -7.56049771E-05 -5.00419898E-06  7.23074165E-05
 -1.80845273E-03  2.94679824E-04  1.95018353E-05 -3.16051447E-04  1.65037600E-02
 -1.97794430E-03 -1.30945656E-04  2.30824698E-03 -7.03106846E-04 -1.01124941E-03
 -5.83645030E-04 -1.20116773E-05  9.75919527E-05  6.45912976E-06 -1.91691079E-01
  6.88583973E-01  1.87216937E-03 -3.25322395E-03 -1.21037613E-03  5.09094181E-02
  4.44705301E-04 -7.24475255E-04 -3.02700330E-04 -1.43983161E-02 -1.68782675E-03
  3.22141596E-03  9.96023401E-04 -1.09156892E-02 -1.08423357E-02 -1.10003813E-02
 -8.69662604E-05 -7.97854794E-05  7.29851004E-05 -2.02452232E-01  7.27236915E-01
  1.97953963E-03  3.43178506E-03 -1.27769876E-03  5.37538555E-02  4.74938877E-04
  7.78722511E-04 -3.23528480E-04 -1.50810027E-02 -1.76941241E-03 -3.33431139E-03
  1.05022171E-03 -1.15295291E-02 -1.14439773E-02 -1.16163909E-02  9.85091958E-05
 -8.11302106E-05 -7.99649136E-05 -5.72329251E-02  2.05624356E-01 -1.15057783E-03
  1.98362206E-07 -3.68909935E-04  1.53689048E-02 -7.36630594E-05  1.74355113E-06
 -4.23591808E-05 -5.86872954E-03  1.90448060E-03  1.01476584E-05  3.18270727E-04
 -3.34825200E-03 -3.22251107E-03 -3.30331555E-03 -4.53304177E-07  1.88292815E-05
 -2.42667708E-06  1.56785475E-04 -1.05439357E-04  1.93825546E-05 -1.77399055E-04
 -4.34211101E-04  1.79097655E-06 -7.73846305E-05 -1.37745735E-03  1.56085303E-03
 -6.43904951E-06  2.93448027E-04 -1.21697841E-03 -2.21525728E-03  9.14504862E-06
 -2.05251153E-04  2.23199070E-03 -5.09759337E-04  2.65259243E-04  4.45934585E-06
  1.04805483E-03 -4.32378575E-06  3.45998022E-04 -1.17537398E-03  9.03215969E-02
 -1.56796919E-01 -5.38431987E-02  1.70053705E-04  2.91955305E-03 -4.95811814E-03
 -1.69288740E-03 -1.14010644E-03 -1.21121573E-03  1.79123744E-03  5.59099264E-04
  1.18253019E-04  4.14966542E-04  2.00453774E-04 -1.13058062E-04 -9.89709326E-05
  9.43691582E-05  3.37153980E-04 -1.14408043E-03  8.81270584E-02  1.52685204E-01
 -5.24576421E-02  1.67033091E-04  2.85174584E-03  4.83031849E-03 -1.64994460E-03
 -1.12215796E-03 -1.18916381E-03 -1.74800858E-03  5.45046742E-04  1.15541289E-04
  4.08817453E-04  1.98571753E-04  1.09474627E-04 -9.78115081E-05 -9.18051460E-05
 -1.73485629E-03  6.18768369E-03  9.15167107E-01 -3.96990661E-04  2.71927394E-01
 -5.40380216E-04  2.82570125E-02 -1.24933151E-05  8.40345905E-03  3.07968809E-03
 -9.21397336E-03  4.66058094E-06 -2.74442174E-03 -1.48390221E-03 -6.74618910E-05
 -2.41689382E-04  3.20416402E-07 -5.19153956E-04  3.90771847E-07  7.70739527E-06
 -5.16533333E-06  9.52433322E-07 -8.71980771E-06  8.71794447E-07 -4.61413512E-04
 -3.80545616E-06 -6.77066308E-05 -3.13527727E-06  1.65834195E-03  1.44278287E-05
 -5.97838163E-05  4.44248037E-06 -2.35480314E-03 -1.00621995E-05  3.76595975E-05
  4.69767445E-05  1.30436550E-05 -1.68225507E-03 -2.10949445E-06  1.11409149E-03
 -1.29312414E-03  4.57806065E-03 -3.40487561E-01  5.90019089E-01  2.02602166E-01
 -4.39087846E-04 -1.05320452E-02  1.83179652E-02  6.27779142E-03  2.60128577E-03
  3.44290216E-03 -6.15658222E-03 -2.05385888E-03 -4.15791594E-04 -8.70198117E-04
 -2.68683458E-04  5.65963962E-04  1.80973387E-04 -3.60996004E-04  1.25524286E-03
 -4.43920692E-03  3.30954569E-01  5.72335783E-01 -1.96631982E-01  4.31263705E-04
  1.02428656E-02  1.77812736E-02 -6.09513960E-03 -2.56760184E-03 -3.35714192E-03
 -5.99742281E-03  1.99459690E-03  4.14343158E-04  8.52045827E-04  2.73109243E-04
  5.52311689E-04 -1.76329887E-04 -3.52639249E-04 -1.38093066E-05  5.12699668E-05
  7.33826016E-03 -1.52243048E-04  2.17939992E-03 -2.16113202E-06  2.20888879E-04
  6.28651414E-05  6.63572182E-05  6.43751990E-06 -6.24514640E-05 -1.89304445E-04
 -2.14657130E-05 -7.27029527E-06  2.61130178E-06  3.30590943E-06  1.12730433E-04
 -3.20247555E-06 -4.74898964E-05 -4.34800495E-04  2.91089037E-04 -5.36836540E-05
  4.91639918E-04 -1.56570369E-04 -7.53178702E-06  2.14638321E-04  3.81891097E-03
  5.62623973E-04  2.70619146E-05 -8.13602897E-04  3.37385733E-03 -7.98518947E-04
 -3.84540767E-05  5.67735705E-04 -1.89286915E-03 -2.88088572E-03 -7.35768149E-04
 -2.82093268E-05  3.78223061E-04  1.81835104E-05  1.20055441E-03 -4.38382743E-03
  3.17789680E-01 -5.50916728E-01 -1.89084470E-01  2.65976640E-04  9.68533656E-03
 -1.67497879E-02 -5.79297652E-03 -1.21842909E-03 -2.95902246E-03  5.01427723E-03
  1.88139682E-03  8.70661036E-05  5.97831137E-04 -9.67708430E-05 -4.41768549E-04
 -1.67992799E-04  2.62538269E-04  1.24253588E-03 -4.53237535E-03  3.29342451E-01
  5.69783016E-01 -1.95661349E-01  2.80322014E-04  1.00425225E-02  1.73358715E-02
 -5.99680263E-03 -1.30360133E-03 -3.07553576E-03 -5.21187731E-03  1.94809527E-03
  1.01424074E-04  6.25513523E-04 -8.78447894E-05  4.60707905E-04 -1.74110781E-04
 -2.74140655E-04  4.72780699E-04 -1.80862090E-03 -2.52658123E-01  1.07295153E-04
 -7.50088538E-02  1.74429798E-05 -7.45393434E-03  4.27685267E-06 -2.25775435E-03
  2.57199717E-04  1.84525015E-03 -3.91864439E-06  7.24916665E-04  1.33876772E-04
 -1.77847124E-04 -2.51495489E-04  1.69883642E-06  8.38058311E-05 -8.19250491E-07
  1.83489121E-09 -6.34310676E-08  1.85346264E-11  1.29832079E-09 -3.89381272E-07
  8.02401864E-05 -4.21114602E-09  9.01408438E-09  1.90931916E-06 -3.93354751E-04
  2.08192837E-08  4.15239943E-09 -8.09339741E-06  1.66838188E-03 -1.32684224E-07
 -9.13574151E-07  9.00134132E-07  8.59458882E-09 -1.69586115E-04  7.78697036E-08
 -1.58682425E-05  1.16338710E-07 -1.72755986E-05 -2.30323536E-01 -1.28848194E-01
 -1.15254383E-02  3.50177572E-06 -6.84786675E-03 -3.75663079E-03 -3.97201068E-04
 -3.93718101E-04  2.38111875E-03  1.30653514E-03  4.00950931E-04 -3.21456029E-05
 -1.43940826E-05 -9.51322992E-05 -6.90261812E-06  4.90123855E-05  7.98122197E-06
 -1.14992779E-07  1.71664627E-05  2.26718592E-01 -1.27062784E-01  1.14345998E-02
 -3.48593634E-06  6.74436831E-03 -3.70608108E-03  3.94185569E-04  3.91369336E-04
 -2.35077495E-03  1.29224105E-03 -3.98305372E-04  3.07379483E-05  1.55172272E-05
  9.45527051E-05 -7.67773191E-06 -4.86081232E-05  7.91444652E-06  9.60072556E-10
  9.99231209E-08  3.82650503E-04  9.19035979E-01  5.42989165E-05 -2.04800401E-08
  1.06511813E-05  2.65699012E-02  1.96072801E-06  2.40314693E-06 -3.24165065E-06
 -8.17426473E-03 -2.29428936E-06 -1.20767539E-07  4.06699772E-07  5.83919473E-07
 -2.71879905E-04  6.24650859E-08 -1.11387773E-04  7.11878059E-09 -2.11754131E-07
 -1.93019614E-10 -2.03006798E-09  4.15140443E-06  1.24534902E-04 -1.33954654E-08
 -7.78798235E-09 -2.03590928E-05 -6.10633077E-04  6.53867214E-08  1.36379451E-07
  8.64410303E-05  2.59013147E-03 -3.84414526E-07  7.25543080E-06 -7.28403790E-06
  2.34508637E-08 -2.62879187E-04 -7.87385365E-07 -2.43403480E-05  1.96944925E-07
 -2.63411184E-05  5.76620878E-01  3.39033662E-01 -1.81926614E-02  5.20377568E-06
  1.66013619E-02  9.87942142E-03 -6.22983229E-04 -5.97382942E-04 -5.07135163E-03