Ph                                                                      
SP        RB3LYP                                                      6-31G(d)            
Number of atoms                            I               12
Info1-9                                    I   N=           9
          21          21           0           0           0         110
           1          18        -502
Full Title                                 C   N=           1
Ph          
Route                                      C   N=           2
# nosymm b3lyp/6-31G*   
Charge                                     I                0
Multiplicity                               I                1
Number of electrons                        I               42
Number of alpha electrons                  I               21
Number of beta electrons                   I               21
Number of basis functions                  I              102
Number of independent functions            I              102
Number of point charges in /Mol/           I                0
Number of translation vectors              I                0
Atomic numbers                             I   N=          12
           1           6           6           6           6           1
           6           1           6           1           1           1
Nuclear charges                            R   N=          12
  1.00000000E+00  6.00000000E+00  6.00000000E+00  6.00000000E+00  6.00000000E+00
  1.00000000E+00  6.00000000E+00  1.00000000E+00  6.00000000E+00  1.00000000E+00
  1.00000000E+00  1.00000000E+00
Current cartesian coordinates              R   N=          36
  0.00000000E+00  0.00000000E+00  0.00000000E+00  0.00000000E+00  0.00000000E+00
  2.04577971E+00 -2.17618971E+00 -6.63104897E-01  3.36049997E+00  2.17626530E+00
  6.62802541E-01  3.36051886E+00 -2.17596294E+00 -6.64163144E-01  5.98780510E+00
 -3.87184096E+00 -1.17845211E+00  2.33844159E+00  2.17666214E+00  6.61800986E-01
  5.98782399E+00  3.87125514E+00  1.18037963E+00  2.33847939E+00  4.91328792E-04
 -1.66295899E-03  7.30244977E+00 -3.87140632E+00 -1.18102214E+00  7.00903199E+00
  3.87231339E+00  1.17797968E+00  7.00905089E+00  9.63760324E-04 -3.30702072E-03
  9.34802160E+00
Number of symbols in /Mol/                 I                0
Force Field                                I                0
Atom Types                                 C   N=          12
                                                            
                                                            
                        
Int Atom Types                             I   N=          12
           0           0           0           0           0           0
           0           0           0           0           0           0
MM charges                                 R   N=          12
  0.00000000E+00  0.00000000E+00  0.00000000E+00  0.00000000E+00  0.00000000E+00
  0.00000000E+00  0.00000000E+00  0.00000000E+00  0.00000000E+00  0.00000000E+00
  0.00000000E+00  0.00000000E+00
Integer atomic weights                     I   N=          12
           1          12          12          12          12           1
          12           1          12           1           1           1
Real atomic weights                        R   N=          12
  1.00782504E+00  1.20000000E+01  1.20000000E+01  1.20000000E+01  1.20000000E+01
  1.00782504E+00  1.20000000E+01  1.00782504E+00  1.20000000E+01  1.00782504E+00
  1.00782504E+00  1.00782504E+00
Atom fragment info                         I   N=          12
           0           0           0           0           0           0
           0           0           0           0           0           0
Atom residue num                           I   N=          12
           0           0           0           0           0           0
           0           0           0           0           0           0
Nuclear spins                              I   N=          12
           1           0           0           0           0           1
           0           1           0           1           1           1
Nuclear ZEff                               R   N=          12
 -1.00000000E+00 -3.60000000E+00 -3.60000000E+00 -3.60000000E+00 -3.60000000E+00
 -1.00000000E+00 -3.60000000E+00 -1.00000000E+00 -3.60000000E+00 -1.00000000E+00
 -1.00000000E+00 -1.00000000E+00
Nuclear ZNuc                               R   N=          12
  1.00000000E+00  6.00000000E+00  6.00000000E+00  6.00000000E+00  6.00000000E+00
  1.00000000E+00  6.00000000E+00  1.00000000E+00  6.00000000E+00  1.00000000E+00
  1.00000000E+00  1.00000000E+00
Nuclear QMom                               R   N=          12
  0.00000000E+00  0.00000000E+00  0.00000000E+00  0.00000000E+00  0.00000000E+00
  0.00000000E+00  0.00000000E+00  0.00000000E+00  0.00000000E+00  0.00000000E+00
  0.00000000E+00  0.00000000E+00
Nuclear GFac                               R   N=          12
  2.79284600E+00  0.00000000E+00  0.00000000E+00  0.00000000E+00  0.00000000E+00
  2.79284600E+00  0.00000000E+00  2.79284600E+00  0.00000000E+00  2.79284600E+00
  2.79284600E+00  2.79284600E+00
MicOpt                                     I   N=          12
          -1          -1          -1          -1          -1          -1
          -1          -1          -1          -1          -1          -1
Number of residues                         I                0
Number of secondary structures             I                0
Number of contracted shells                I               36
Number of primitive shells                 I               90
Pure/Cartesian d shells                    I                1
Pure/Cartesian f shells                    I                0
Highest angular momentum                   I                2
Largest degree of contraction              I                6
Shell types                                I   N=          36
           0           0           0          -1          -1           2
           0          -1          -1           2           0          -1
          -1           2           0          -1          -1           2
           0           0           0          -1          -1           2
           0           0           0          -1          -1           2
           0           0           0           0           0           0
Number of primitives per shell             I   N=          36
           3           1           6           3           1           1
           6           3           1           1           6           3
           1           1           6           3           1           1
           3           1           6           3           1           1
           3           1           6           3           1           1
           3           1           3           1           3           1
Shell to atom map                          I   N=          36
           1           1           2           2           2           2
           3           3           3           3           4           4
           4           4           5           5           5           5
           6           6           7           7           7           7
           8           8           9           9           9           9
          10          10          11          11          12          12
Primitive exponents                        R   N=          90
  1.87311370E+01  2.82539436E+00  6.40121692E-01  1.61277759E-01  3.04752488E+03
  4.57369518E+02  1.03948685E+02  2.92101553E+01  9.28666296E+00  3.16392696E+00
  7.86827235E+00  1.88128854E+00  5.44249258E-01  1.68714478E-01  8.00000000E-01
  3.04752488E+03  4.57369518E+02  1.03948685E+02  2.92101553E+01  9.28666296E+00
  3.16392696E+00  7.86827235E+00  1.88128854E+00  5.44249258E-01  1.68714478E-01
  8.00000000E-01  3.04752488E+03  4.57369518E+02  1.03948685E+02  2.92101553E+01
  9.28666296E+00  3.16392696E+00  7.86827235E+00  1.88128854E+00  5.44249258E-01
  1.68714478E-01  8.00000000E-01  3.04752488E+03  4.57369518E+02  1.03948685E+02
  2.92101553E+01  9.28666296E+00  3.16392696E+00  7.86827235E+00  1.88128854E+00
  5.44249258E-01  1.68714478E-01  8.00000000E-01  1.87311370E+01  2.82539436E+00
  6.40121692E-01  1.61277759E-01  3.04752488E+03  4.57369518E+02  1.03948685E+02
  2.92101553E+01  9.28666296E+00  3.16392696E+00  7.86827235E+00  1.88128854E+00
  5.44249258E-01  1.68714478E-01  8.00000000E-01  1.87311370E+01  2.82539436E+00
  6.40121692E-01  1.61277759E-01  3.04752488E+03  4.57369518E+02  1.03948685E+02
  2.92101553E+01  9.28666296E+00  3.16392696E+00  7.86827235E+00  1.88128854E+00
  5.44249258E-01  1.68714478E-01  8.00000000E-01  1.87311370E+01  2.82539436E+00
  6.40121692E-01  1.61277759E-01  1.87311370E+01  2.82539436E+00  6.40121692E-01
  1.61277759E-01  1.87311370E+01  2.82539436E+00  6.40121692E-01  1.61277759E-01
Contraction coefficients                   R   N=          90
  3.34946043E-02  2.34726953E-01  8.13757326E-01  1.00000000E+00  1.83473713E-03
  1.40373228E-02  6.88426223E-02  2.32184443E-01  4.67941348E-01  3.62311985E-01
 -1.19332420E-01 -1.60854152E-01  1.14345644E+00  1.00000000E+00  1.00000000E+00
  1.83473713E-03  1.40373228E-02  6.88426223E-02  2.32184443E-01  4.67941348E-01
  3.62311985E-01 -1.19332420E-01 -1.60854152E-01  1.14345644E+00  1.00000000E+00
  1.00000000E+00  1.83473713E-03  1.40373228E-02  6.88426223E-02  2.32184443E-01
  4.67941348E-01  3.62311985E-01 -1.19332420E-01 -1.60854152E-01  1.14345644E+00
  1.00000000E+00  1.00000000E+00  1.83473713E-03  1.40373228E-02  6.88426223E-02
  2.32184443E-01  4.67941348E-01  3.62311985E-01 -1.19332420E-01 -1.60854152E-01
  1.14345644E+00  1.00000000E+00  1.00000000E+00  3.34946043E-02  2.34726953E-01
  8.13757326E-01  1.00000000E+00  1.83473713E-03  1.40373228E-02  6.88426223E-02
  2.32184443E-01  4.67941348E-01  3.62311985E-01 -1.19332420E-01 -1.60854152E-01
  1.14345644E+00  1.00000000E+00  1.00000000E+00  3.34946043E-02  2.34726953E-01
  8.13757326E-01  1.00000000E+00  1.83473713E-03  1.40373228E-02  6.88426223E-02
  2.32184443E-01  4.67941348E-01  3.62311985E-01 -1.19332420E-01 -1.60854152E-01
  1.14345644E+00  1.00000000E+00  1.00000000E+00  3.34946043E-02  2.34726953E-01
  8.13757326E-01  1.00000000E+00  3.34946043E-02  2.34726953E-01  8.13757326E-01
  1.00000000E+00  3.34946043E-02  2.34726953E-01  8.13757326E-01  1.00000000E+00
P(S=P) Contraction coefficients            R   N=          90
  0.00000000E+00  0.00000000E+00  0.00000000E+00  0.00000000E+00  0.00000000E+00
  0.00000000E+00  0.00000000E+00  0.00000000E+00  0.00000000E+00  0.00000000E+00
  6.89990666E-02  3.16423961E-01  7.44308291E-01  1.00000000E+00  0.00000000E+00
  0.00000000E+00  0.00000000E+00  0.00000000E+00  0.00000000E+00  0.00000000E+00
  0.00000000E+00  6.89990666E-02  3.16423961E-01  7.44308291E-01  1.00000000E+00
  0.00000000E+00  0.00000000E+00  0.00000000E+00  0.00000000E+00  0.00000000E+00
  0.00000000E+00  0.00000000E+00  6.89990666E-02  3.16423961E-01  7.44308291E-01
  1.00000000E+00  0.00000000E+00  0.00000000E+00  0.00000000E+00  0.00000000E+00
  0.00000000E+00  0.00000000E+00  0.00000000E+00  6.89990666E-02  3.16423961E-01
  7.44308291E-01  1.00000000E+00  0.00000000E+00  0.00000000E+00  0.00000000E+00
  0.00000000E+00  0.00000000E+00  0.00000000E+00  0.00000000E+00  0.00000000E+00
  0.00000000E+00  0.00000000E+00  0.00000000E+00  6.89990666E-02  3.16423961E-01
  7.44308291E-01  1.00000000E+00  0.00000000E+00  0.00000000E+00  0.00000000E+00
  0.00000000E+00  0.00000000E+00  0.00000000E+00  0.00000000E+00  0.00000000E+00
  0.00000000E+00  0.00000000E+00  0.00000000E+00  6.89990666E-02  3.16423961E-01
  7.44308291E-01  1.00000000E+00  0.00000000E+00  0.00000000E+00  0.00000000E+00
  0.00000000E+00  0.00000000E+00  0.00000000E+00  0.00000000E+00  0.00000000E+00
  0.00000000E+00  0.00000000E+00  0.00000000E+00  0.00000000E+00  0.00000000E+00
Coordinates of each shell                  R   N=         108
  0.00000000E+00  0.00000000E+00  0.00000000E+00  0.00000000E+00  0.00000000E+00
  0.00000000E+00  0.00000000E+00  0.00000000E+00  2.04577971E+00  0.00000000E+00
  0.00000000E+00  2.04577971E+00  0.00000000E+00  0.00000000E+00  2.04577971E+00
  0.00000000E+00  0.00000000E+00  2.04577971E+00 -2.17618971E+00 -6.63104897E-01
  3.36049997E+00 -2.17618971E+00 -6.63104897E-01  3.36049997E+00 -2.17618971E+00
 -6.63104897E-01  3.36049997E+00 -2.17618971E+00 -6.63104897E-01  3.36049997E+00
  2.17626530E+00  6.62802541E-01  3.36051886E+00  2.17626530E+00  6.62802541E-01
  3.36051886E+00  2.17626530E+00  6.62802541E-01  3.36051886E+00  2.17626530E+00
  6.62802541E-01  3.36051886E+00 -2.17596294E+00 -6.64163144E-01  5.98780510E+00
 -2.17596294E+00 -6.64163144E-01  5.98780510E+00 -2.17596294E+00 -6.64163144E-01
  5.98780510E+00 -2.17596294E+00 -6.64163144E-01  5.98780510E+00 -3.87184096E+00
 -1.17845211E+00  2.33844159E+00 -3.87184096E+00 -1.17845211E+00  2.33844159E+00
  2.17666214E+00  6.61800986E-01  5.98782399E+00  2.17666214E+00  6.61800986E-01
  5.98782399E+00  2.17666214E+00  6.61800986E-01  5.98782399E+00  2.17666214E+00
  6.61800986E-01  5.98782399E+00  3.87125514E+00  1.18037963E+00  2.33847939E+00
  3.87125514E+00  1.18037963E+00  2.33847939E+00  4.91328792E-04 -1.66295899E-03
  7.30244977E+00  4.91328792E-04 -1.66295899E-03  7.30244977E+00  4.91328792E-04
 -1.66295899E-03  7.30244977E+00  4.91328792E-04 -1.66295899E-03  7.30244977E+00
 -3.87140632E+00 -1.18102214E+00  7.00903199E+00 -3.87140632E+00 -1.18102214E+00
  7.00903199E+00  3.87231339E+00  1.17797968E+00  7.00905089E+00  3.87231339E+00
  1.17797968E+00  7.00905089E+00  9.63760324E-04 -3.30702072E-03  9.34802160E+00
  9.63760324E-04 -3.30702072E-03  9.34802160E+00
Num ILSW                                   I              100
ILSW                                       I   N=         100
           0           1           0           0           2           0
           0           0           0           0         402          -1
           5           0           0           0           0           0
           0           0           1           0           0           0
           1           1           0           0           0           0
           0           0      100000           0          -1           0
           0           0           0           0           0           0
           0           0           0           1           0           0
           0 -2000000000           1           0           0           0
           0           0           4          52           0           0
           0           0           5           0           0           0
           0           0           0           0           0           1
           0           0           0           0           0           0
           0           0           0           0           0           0
           0           0           0           0           0           0
           0           0           0           0           0           0
           0           0           0           0
Num RLSW                                   I               52
RLSW                                       R   N=          52
  8.00000000E-01  7.20000000E-01  1.00000000E+00  8.10000000E-01  2.00000000E-01
  0.00000000E+00  0.00000000E+00  1.00000000E+00  0.00000000E+00  0.00000000E+00
  0.00000000E+00  0.00000000E+00  1.00000000E+00  0.00000000E+00  0.00000000E+00
  0.00000000E+00  0.00000000E+00  1.00000000E+00  0.00000000E+00  0.00000000E+00
  0.00000000E+00  0.00000000E+00  1.00000000E+00  0.00000000E+00  0.00000000E+00
  0.00000000E+00  0.00000000E+00  1.00000000E+00  0.00000000E+00  0.00000000E+00
  0.00000000E+00  0.00000000E+00  1.00000000E+00  0.00000000E+00  0.00000000E+00
  0.00000000E+00  0.00000000E+00  0.00000000E+00  1.00000000E+00  1.00000000E+00
  0.00000000E+00  1.00000000E+00  0.00000000E+00  0.00000000E+00  0.00000000E+00
  0.00000000E+00  0.00000000E+00  0.00000000E+00  0.00000000E+00  0.00000000E+00
  0.00000000E+00  0.00000000E+00
MxBond                                     I                3
NBond                                      I   N=          12
           1           3           3           3           3           1
           3           1           3           1           1           1
IBond                                      I   N=          36
           2           0           0           1           3           4
           2           5           6           2           7           8
           3           9          10           3           0           0
           4           9          11           4           0           0
           5           7          12           5           0           0
           7           0           0           9           0           0
RBond                                      R   N=          36
  1.00000000E+00  0.00000000E+00  0.00000000E+00  1.00000000E+00  1.50000000E+00
  1.50000000E+00  1.50000000E+00  1.50000000E+00  1.00000000E+00  1.50000000E+00
  1.50000000E+00  1.00000000E+00  1.50000000E+00  1.50000000E+00  1.00000000E+00
  1.00000000E+00  0.00000000E+00  0.00000000E+00  1.50000000E+00  1.50000000E+00
  1.00000000E+00  1.00000000E+00  0.00000000E+00  0.00000000E+00  1.50000000E+00
  1.50000000E+00  1.00000000E+00  1.00000000E+00  0.00000000E+00  0.00000000E+00
  1.00000000E+00  0.00000000E+00  0.00000000E+00  1.00000000E+00  0.00000000E+00
  0.00000000E+00
Virial Ratio                               R      2.009524650892783E+00
SCF Energy                                 R     -2.322483497185971E+02
Total Energy                               R     -2.322483497185971E+02
RMS Density                                R      9.023524392673765E-09
Job Status                                 I                1
Nuclear derivative order                   I                0
External E-field                           R   N=          35
  0.00000000E+00  0.00000000E+00  0.00000000E+00  0.00000000E+00  0.00000000E+00
  0.00000000E+00  0.00000000E+00  0.00000000E+00  0.00000000E+00  0.00000000E+00
  0.00000000E+00  0.00000000E+00  0.00000000E+00  0.00000000E+00  0.00000000E+00
  0.00000000E+00  0.00000000E+00  0.00000000E+00  0.00000000E+00  0.00000000E+00
  0.00000000E+00  0.00000000E+00  0.00000000E+00  0.00000000E+00  0.00000000E+00
  0.00000000E+00  0.00000000E+00  0.00000000E+00  0.00000000E+00  0.00000000E+00
  0.00000000E+00  0.00000000E+00  0.00000000E+00  0.00000000E+00  0.00000000E+00
IOpCl                                      I                0
IROHF                                      I                0
Alpha Orbital Energies                     R   N=         102
 -1.01855079E+01 -1.01852461E+01 -1.01852148E+01 -1.01846682E+01 -1.01846373E+01
 -1.01843746E+01 -8.49278184E-01 -7.41488887E-01 -7.41471149E-01 -5.98649987E-01
 -5.98508015E-01 -5.20740786E-01 -4.59051650E-01 -4.39613386E-01 -4.18194749E-01
 -4.18049156E-01 -3.61283355E-01 -3.40316834E-01 -3.40200637E-01 -2.46956342E-01
 -2.46938010E-01  5.02257799E-03  5.11823943E-03  9.18772051E-02  1.45812798E-01
  1.45833876E-01  1.67212036E-01  1.83860051E-01  1.83985423E-01  1.92862866E-01
  3.05405562E-01  3.05488568E-01  3.22481838E-01  3.22523538E-01  4.73325922E-01
  5.26934309E-01  5.52055205E-01  5.56571846E-01  5.69830907E-01  5.92461862E-01
  6.01482770E-01  6.01492311E-01  6.05457694E-01  6.05503004E-01  6.28121693E-01
  6.28141435E-01  6.68260125E-01  6.68308374E-01  7.46262822E-01  8.42717659E-01
  8.42749818E-01  8.45617608E-01  8.65890166E-01  8.66141466E-01  9.41703522E-01
  9.41920908E-01  9.43484973E-01  9.63404152E-01  1.08422653E+00  1.08440534E+00
  1.14634635E+00  1.14651723E+00  1.20661248E+00  1.26209820E+00  1.39357160E+00
  1.44124820E+00  1.44161140E+00  1.48912190E+00  1.48935904E+00  1.51589299E+00
  1.51613805E+00  1.75846447E+00  1.79528936E+00  1.86337773E+00  1.90478318E+00
  1.98121609E+00  1.98147600E+00  2.07618626E+00  2.07667562E+00  2.15610690E+00
  2.15638080E+00  2.16344496E+00  2.16380626E+00  2.31558730E+00  2.31617922E+00
  2.32991086E+00  2.55083875E+00  2.55090684E+00  2.66938005E+00  2.72043216E+00
  2.72049087E+00  2.72902844E+00  2.72915530E+00  2.76501126E+00  3.02447980E+00
  3.43210733E+00  4.09342181E+00  4.12046123E+00  4.12047022E+00  4.33275372E+00
  4.33283757E+00  4.67251868E+00
Alpha MO coefficients                      R   N=       10404
 -1.95556716E-04  9.19883410E-04  4.15235372E-01  2.03049381E-02 -5.62659311E-08
 -1.74832578E-08 -1.19295331E-04 -2.79632851E-03  2.92847195E-07  2.87859174E-08
  3.06301530E-04 -4.12354618E-03 -4.16970061E-03 -4.03470625E-03  1.78965228E-05
  1.49628936E-09 -1.63658709E-09  3.95882874E-01  1.93272614E-02 -1.08044731E-04
 -3.28416074E-05 -6.11128414E-05 -2.41300407E-03  3.27729108E-04  9.97086293E-05
  1.69448673E-04 -3.89096220E-03 -3.98081508E-03 -3.92422321E-03  3.47728562E-05
  4.52249305E-05  1.37252900E-05  3.96064491E-01  1.93362329E-02  1.07969852E-04
  3.29690535E-05 -6.11910319E-05 -2.41421822E-03 -3.27527505E-04 -9.99155136E-05
  1.69915557E-04 -3.89279720E-03 -3.98254964E-03 -3.92604586E-03  3.48701791E-05
 -4.52011458E-05 -1.38229808E-05  3.98865705E-01  1.94731253E-02 -1.10314475E-04
 -3.36054550E-05  5.81335604E-05 -2.39987716E-03  3.53962667E-04  1.07709056E-04
 -1.62233906E-04 -3.92129587E-03 -4.01085665E-03 -3.95452405E-03  3.47131711E-05
 -4.58145469E-05 -1.39881144E-05 -1.88302416E-04  8.96059628E-04  3.99173621E-01
  1.94884825E-02  1.10250412E-04  3.35875954E-05  5.81614404E-05 -2.40369548E-03
 -3.53389913E-04 -1.07770592E-04 -1.62258523E-04 -3.92425366E-03 -4.01383529E-03
 -3.95746276E-03  3.47479120E-05  4.58255688E-05  1.39278918E-05 -1.88380819E-04
  8.96383316E-04  4.24620764E-01  2.07740325E-02 -4.39352214E-08 -1.67095626E-07
  1.18026405E-04 -2.93708135E-03  3.15604032E-07  6.44351757E-07 -2.78250861E-04
 -4.21316768E-03 -4.26048841E-03 -4.12435189E-03  1.83478630E-05  5.52433286E-08
 -1.37790983E-07 -1.89296533E-04  9.05312395E-04 -1.89427595E-04  9.05774683E-04
 -1.99997695E-04  9.31065323E-04 -2.55687688E-04  9.05842434E-04  5.83667504E-01
  2.90291036E-02  3.46016238E-07  1.52808403E-08  4.07469878E-05 -6.38565978E-03
 -1.68377739E-06 -3.55136689E-07 -5.82186023E-04 -5.65826334E-03 -5.69333642E-03
 -5.63126330E-03  1.35995098E-05  1.43856861E-08  7.42723668E-08  2.80905771E-01
  1.39359090E-02 -1.14540174E-04 -3.49586401E-05  2.28930457E-04 -2.46601358E-03
  6.65049768E-04  2.02973785E-04 -1.14573836E-03 -2.75105786E-03 -2.75341059E-03
 -2.71492728E-03  8.74526961E-07  2.29381391E-05  6.92370271E-06  2.79814761E-01
  1.38817495E-02  1.14783333E-04  3.49045051E-05  2.29238476E-04 -2.45562677E-03
 -6.66527999E-04 -2.02675361E-04 -1.14725370E-03 -2.74051514E-03 -2.74270889E-03
 -2.70424616E-03  8.89099545E-07 -2.28816079E-05 -7.03441293E-06 -2.71272764E-01
 -1.34603148E-02  1.15108710E-04  3.49965677E-05  2.31126481E-04  2.36593862E-03
 -6.76617964E-04 -2.05628834E-04 -1.15386317E-03  2.65896810E-03  2.65840339E-03
  2.62163054E-03  2.35787774E-07  2.32286936E-05  7.10099203E-06 -1.17586673E-04
  4.97523980E-04 -2.72527716E-01 -1.35227554E-02 -1.14820280E-04 -3.50485171E-05
  2.30892266E-04  2.37968523E-03  6.74592831E-04  2.05995993E-04 -1.15294280E-03
  2.67106731E-03  2.67061938E-03  2.63375955E-03  1.56933195E-07 -2.32360357E-05
 -7.05389013E-06 -1.17111916E-04  4.95711516E-04 -5.82652102E-01 -2.89878776E-02
  3.36185923E-07  1.82670305E-07  4.48598449E-05  6.44860767E-03 -1.87441811E-06
 -5.89439082E-07 -6.08874478E-04  5.64272916E-03  5.68026900E-03  5.61875894E-03
 -1.45556672E-05 -8.65607296E-08  1.20192195E-07  1.13335465E-04 -4.79493786E-04
  1.13873719E-04 -4.81484643E-04  2.54827276E-04 -8.98157964E-04  2.55658879E-07
 -7.12093750E-07 -5.61325324E-04 -2.80258613E-05  2.86242876E-04  8.71997165E-05
 -6.95648804E-08  7.20539833E-06 -1.48466853E-03 -4.52285168E-04  1.13317431E-06
  5.41544297E-06  5.44590173E-06  5.40642694E-06  8.08875363E-09  3.38286703E-05
  1.03046680E-05  4.96087948E-01  2.46570692E-02  9.74214599E-05  2.97879226E-05
 -1.14128931E-04 -5.09891863E-03 -6.41855716E-04 -1.95767923E-04  5.10483748E-04
 -4.79146428E-03 -4.84259229E-03 -4.82375885E-03  1.97293310E-05  2.22435706E-06
  6.33600048E-07 -4.96553532E-01 -2.46802292E-02  9.72778612E-05  2.95185537E-05
  1.13597912E-04  5.10172321E-03 -6.39883347E-04 -1.94682763E-04 -5.08402528E-04
  4.79611193E-03  4.84705952E-03  4.82825753E-03 -1.98524673E-05  2.21821256E-06
  7.21354472E-07  4.96620830E-01  2.46834773E-02  9.70750289E-05  2.95538048E-05
  1.13635975E-04 -5.10101018E-03 -6.39076076E-04 -1.94522108E-04 -5.08290645E-04
 -4.79672020E-03 -4.84788464E-03 -4.82922572E-03  1.98470674E-05 -2.31452637E-06
 -7.20513004E-07 -2.13908886E-04  8.02032182E-04 -4.95895565E-01 -2.46478311E-02
  9.74616280E-05  2.97074655E-05 -1.14153213E-04  5.09824612E-03 -6.42053980E-04
 -1.95762634E-04  5.10405841E-04  4.78948103E-03  4.84066965E-03  4.82207051E-03
 -1.98389392E-05 -2.21495739E-06 -6.58369634E-07  2.14067098E-04 -8.02959225E-04
  8.73450794E-04  4.34774925E-05  2.86253311E-04  8.72028543E-05 -6.71293422E-08
 -1.08669890E-05 -1.48470266E-03 -4.52291228E-04  1.48244861E-06 -8.40541648E-06
 -8.50217231E-06 -8.38082678E-06  4.92362315E-08 -3.38592871E-05 -1.03154758E-05
 -2.14182430E-04  8.03432317E-04  2.13887188E-04 -8.01782051E-04 -3.92200662E-07
  1.27739671E-06 -2.14313571E-04  6.42245523E-04  5.62829172E-01  2.84389320E-02
 -3.13948259E-07 -1.99637968E-07  2.61310145E-04 -1.14219627E-02  1.96582559E-06
  1.10917752E-06 -2.40213079E-03 -4.98245949E-03 -5.32971996E-03 -5.18153474E-03
  1.34648370E-04 -1.61458394E-07 -4.18233128E-08 -2.94133238E-01 -1.48356751E-02
 -2.02249618E-04 -6.16394186E-05  1.16532285E-04  5.73738246E-03  1.57211025E-03
  4.78938785E-04 -5.25959392E-04  2.62694355E-03  2.79542158E-03  2.70789026E-03
 -6.53043230E-05  1.03913417E-04  3.16618296E-05 -2.92648478E-01 -1.47607608E-02
  2.01890158E-04  6.14720211E-05  1.17116022E-04  5.70831165E-03 -1.56809723E-03
 -4.77670105E-04 -5.30631871E-04  2.61321855E-03  2.78125844E-03  2.69471311E-03
 -6.51796811E-05 -1.03729380E-04 -3.15927804E-05 -3.00151884E-01 -1.51450453E-02
 -2.03557519E-04 -6.19567815E-05 -1.13313619E-04  5.98135389E-03  1.64879554E-03
  5.02020162E-04  4.67226175E-04  2.68100621E-03  2.85076162E-03  2.76103717E-03
 -6.58274001E-05 -1.04639334E-04 -3.18205734E-05  1.12644320E-04 -3.56946173E-04
 -3.01448449E-01 -1.52106101E-02  2.03874134E-04  6.21597232E-05 -1.12687075E-04
  6.00849708E-03 -1.65244078E-03 -5.03652723E-04  4.62357130E-04  2.69292378E-03
  2.86307350E-03  2.77238634E-03 -6.59696280E-05  1.04798603E-04  3.19829115E-05
  1.12069506E-04 -3.55191737E-04  5.62211250E-01  2.84196354E-02  2.76104089E-07
  1.37519675E-07 -2.64207049E-04 -1.16112862E-02 -1.57987597E-06 -1.35557181E-06
  2.50127845E-03 -4.96978453E-03 -5.31973585E-03 -5.17105722E-03  1.35692629E-04
 -1.05907821E-07 -2.25208100E-07  1.17115484E-04 -3.47576372E-04  1.17608366E-04
 -3.49015690E-04 -2.15826444E-04  6.21612895E-04  3.95866312E-07 -6.31194519E-07
 -9.18669801E-04 -4.66021081E-05 -2.27229024E-04 -6.92214073E-05 -4.55979760E-07
  2.20410835E-05  1.40235145E-03  4.27204850E-04  5.83655455E-06  8.09528544E-06
  8.61893556E-06  8.40938666E-06 -2.45903315E-07 -1.14428964E-04 -3.48589774E-05
 -4.95923798E-01 -2.50484576E-02 -1.28787255E-04 -3.91841226E-05 -2.15499589E-04
  1.00220382E-02  1.39603272E-03  4.24514179E-04  1.69409113E-03  4.57726932E-03
  4.71675870E-03  4.37170987E-03 -5.40247882E-05  6.85147322E-05  2.10960608E-05
  4.96977463E-01  2.51019181E-02 -1.29460524E-04 -3.94803181E-05  2.15204090E-04
 -1.00494745E-02  1.40401786E-03  4.28468418E-04 -1.69479219E-03 -4.58667077E-03
 -4.72661686E-03 -4.38123594E-03  5.43278935E-05  6.89872967E-05  2.07919066E-05
  4.96869033E-01  2.50961878E-02  1.29236998E-04  3.94632029E-05 -2.15198857E-04
 -1.00397060E-02 -1.40005787E-03 -4.27234938E-04  1.69250671E-03 -4.58570602E-03
 -4.72582081E-03 -4.38059370E-03  5.42716720E-05  6.88748664E-05  2.08093076E-05
  1.90182028E-04 -5.68133265E-04 -4.96157177E-01 -2.50607479E-02  1.28876102E-04
  3.91659228E-05  2.15566253E-04  1.00336821E-02 -1.39994483E-03 -4.25746065E-04
 -1.69605572E-03  4.57924268E-03  4.71885221E-03  4.37380439E-03 -5.41896407E-05
  6.85493340E-05  2.10547482E-05 -1.90673327E-04  5.68630487E-04 -6.05735701E-04
 -3.05309087E-05  2.27305884E-04  6.92458218E-05  2.98534301E-07  9.88240881E-06
 -1.40291840E-03 -4.27379219E-04 -1.09578376E-06  5.32939709E-06  5.78191238E-06
  5.59156466E-06 -1.26415738E-07 -1.14492573E-04 -3.48782956E-05 -1.90588045E-04
  5.69600230E-04  1.90393203E-04 -5.67886245E-04  1.82786820E-07 -1.02051304E-06
  3.10721964E-04  9.95816342E-04 -3.94715943E-01 -2.05755365E-02  3.47750727E-08
  2.80870183E-08 -2.75444272E-04  2.06319440E-02  1.79134651E-07 -1.61677555E-06
  8.62837234E-03  3.25421681E-03  3.51561121E-03  3.43194799E-03 -1.01354330E-04
  1.28520551E-08  5.37608108E-08  4.14097629E-01  2.15380639E-02  2.26265770E-04
  6.87722597E-05  1.43023737E-04 -2.08172392E-02 -7.14002175E-03 -2.17212629E-03
 -4.33358986E-03 -3.58312923E-03 -3.71844176E-03 -3.46753077E-03  5.24570118E-05
 -9.71528850E-05 -2.96941032E-05  4.13893287E-01  2.15276888E-02 -2.26128729E-04
 -6.90394038E-05  1.42885744E-04 -2.08124827E-02  7.13772094E-03  2.17736316E-03
 -4.33247655E-03 -3.58128258E-03 -3.71650568E-03 -3.46579116E-03  5.24469544E-05
  9.71726826E-05  2.95027729E-05 -4.11559406E-01 -2.14088366E-02 -2.23573752E-04
 -6.82391410E-05  1.44268802E-04  2.07542682E-02  7.12060448E-03  2.17113918E-03
 -4.33893586E-03  3.56123467E-03  3.69485608E-03  3.44496574E-03 -5.16591049E-05
 -9.58150968E-05 -2.90518059E-05 -3.18780665E-04 -9.61161840E-04 -4.11217325E-01
 -2.13916189E-02  2.23563520E-04  6.79722816E-05  1.44168012E-04  2.07480904E-02
 -7.12089961E-03 -2.16733168E-03 -4.33805243E-03  3.55816594E-03  3.69146260E-03
  3.44189018E-03 -5.18345042E-05  9.57022521E-05  2.92924618E-05 -3.18701407E-04