Ph_new_1 0.0                                                            
SP        RB3LYP                                                      6-31G(d)            
Number of atoms                            I               15
Info1-9                                    I   N=           9
          24          24           0           0           0         110
           1          18        -502
Full Title                                 C   N=           1
Ph_new_1 0.0
Route                                      C   N=           2
# nosymm b3lyp/6-31G*   
Charge                                     I                0
Multiplicity                               I                1
Number of electrons                        I               50
Number of alpha electrons                  I               25
Number of beta electrons                   I               25
Number of basis functions                  I              121
Number of independent functions            I              121
Number of point charges in /Mol/           I                0
Number of translation vectors              I                0
Atomic numbers                             I   N=          15
           6           1           6           6           6           6
           1           6           1           6           1           1
           1           1           1
Nuclear charges                            R   N=          15
  6.00000000E+00  1.00000000E+00  6.00000000E+00  6.00000000E+00  6.00000000E+00
  6.00000000E+00  1.00000000E+00  6.00000000E+00  1.00000000E+00  6.00000000E+00
  1.00000000E+00  1.00000000E+00  1.00000000E+00  1.00000000E+00  1.00000000E+00
Current cartesian coordinates              R   N=          45
  0.00000000E+00  0.00000000E+00  0.00000000E+00  9.52557309E-01 -1.67507603E+00
 -7.56939021E-01  0.00000000E+00  0.00000000E+00  2.85483320E+00 -2.71366372E-02
  2.27382919E+00  4.21370706E+00 -2.51477950E-02 -2.27375850E+00  4.21386943E+00
 -8.93641469E-02  2.27997993E+00  6.85282632E+00  4.39486046E-03  4.05821030E+00
  3.19285909E+00 -8.73891374E-02 -2.27981541E+00  6.85300738E+00  7.96069807E-03
 -4.05829491E+00  3.19332880E+00 -1.21461221E-01  9.54878611E-05  8.18416432E+00
 -1.05500027E-01  4.06558197E+00  7.86827504E+00 -1.01960475E-01 -4.06545523E+00
  7.86840415E+00 -1.64260135E-01  2.79320418E-04  1.02372417E+01  9.51392727E-01
  1.67574835E+00 -7.56956633E-01 -1.93749235E+00 -6.45246985E-04 -7.44997879E-01
Number of symbols in /Mol/                 I                0
Force Field                                I                0
Atom Types                                 C   N=          15
                                                            
                                                            
                                                            
Int Atom Types                             I   N=          15
           0           0           0           0           0           0
           0           0           0           0           0           0
           0           0           0
MM charges                                 R   N=          15
  0.00000000E+00  0.00000000E+00  0.00000000E+00  0.00000000E+00  0.00000000E+00
  0.00000000E+00  0.00000000E+00  0.00000000E+00  0.00000000E+00  0.00000000E+00
  0.00000000E+00  0.00000000E+00  0.00000000E+00  0.00000000E+00  0.00000000E+00
Integer atomic weights                     I   N=          15
          12           1          12          12          12          12
           1          12           1          12           1           1
           1           1           1
Real atomic weights                        R   N=          15
  1.20000000E+01  1.00782504E+00  1.20000000E+01  1.20000000E+01  1.20000000E+01
  1.20000000E+01  1.00782504E+00  1.20000000E+01  1.00782504E+00  1.20000000E+01
  1.00782504E+00  1.00782504E+00  1.00782504E+00  1.00782504E+00  1.00782504E+00
Atom fragment info                         I   N=          15
           0           0           0           0           0           0
           0           0           0           0           0           0
           0           0           0
Atom residue num                           I   N=          15
           0           0           0           0           0           0
           0           0           0           0           0           0
           0           0           0
Nuclear spins                              I   N=          15
           0           1           0           0           0           0
           1           0           1           0           1           1
           1           1           1
Nuclear ZEff                               R   N=          15
 -3.60000000E+00 -1.00000000E+00 -3.60000000E+00 -3.60000000E+00 -3.60000000E+00
 -3.60000000E+00 -1.00000000E+00 -3.60000000E+00 -1.00000000E+00 -3.60000000E+00
 -1.00000000E+00 -1.00000000E+00 -1.00000000E+00 -1.00000000E+00 -1.00000000E+00
Nuclear ZNuc                               R   N=          15
  6.00000000E+00  1.00000000E+00  6.00000000E+00  6.00000000E+00  6.00000000E+00
  6.00000000E+00  1.00000000E+00  6.00000000E+00  1.00000000E+00  6.00000000E+00
  1.00000000E+00  1.00000000E+00  1.00000000E+00  1.00000000E+00  1.00000000E+00
Nuclear QMom                               R   N=          15
  0.00000000E+00  0.00000000E+00  0.00000000E+00  0.00000000E+00  0.00000000E+00
  0.00000000E+00  0.00000000E+00  0.00000000E+00  0.00000000E+00  0.00000000E+00
  0.00000000E+00  0.00000000E+00  0.00000000E+00  0.00000000E+00  0.00000000E+00
Nuclear GFac                               R   N=          15
  0.00000000E+00  2.79284600E+00  0.00000000E+00  0.00000000E+00  0.00000000E+00
  0.00000000E+00  2.79284600E+00  0.00000000E+00  2.79284600E+00  0.00000000E+00
  2.79284600E+00  2.79284600E+00  2.79284600E+00  2.79284600E+00  2.79284600E+00
MicOpt                                     I   N=          15
          -1          -1          -1          -1          -1          -1
          -1          -1          -1          -1          -1          -1
          -1          -1          -1
Number of residues                         I                0
Number of secondary structures             I                0
Number of contracted shells                I               44
Number of primitive shells                 I              109
Pure/Cartesian d shells                    I                1
Pure/Cartesian f shells                    I                0
Highest angular momentum                   I                2
Largest degree of contraction              I                6
Shell types                                I   N=          44
           0          -1          -1           2           0           0
           0          -1          -1           2           0          -1
          -1           2           0          -1          -1           2
           0          -1          -1           2           0           0
           0          -1          -1           2           0           0
           0          -1          -1           2           0           0
           0           0           0           0           0           0
           0           0
Number of primitives per shell             I   N=          44
           6           3           1           1           3           1
           6           3           1           1           6           3
           1           1           6           3           1           1
           6           3           1           1           3           1
           6           3           1           1           3           1
           6           3           1           1           3           1
           3           1           3           1           3           1
           3           1
Shell to atom map                          I   N=          44
           1           1           1           1           2           2
           3           3           3           3           4           4
           4           4           5           5           5           5
           6           6           6           6           7           7
           8           8           8           8           9           9
          10          10          10          10          11          11
          12          12          13          13          14          14
          15          15
Primitive exponents                        R   N=         109
  3.04752488E+03  4.57369518E+02  1.03948685E+02  2.92101553E+01  9.28666296E+00
  3.16392696E+00  7.86827235E+00  1.88128854E+00  5.44249258E-01  1.68714478E-01
  8.00000000E-01  1.87311370E+01  2.82539436E+00  6.40121692E-01  1.61277759E-01
  3.04752488E+03  4.57369518E+02  1.03948685E+02  2.92101553E+01  9.28666296E+00
  3.16392696E+00  7.86827235E+00  1.88128854E+00  5.44249258E-01  1.68714478E-01
  8.00000000E-01  3.04752488E+03  4.57369518E+02  1.03948685E+02  2.92101553E+01
  9.28666296E+00  3.16392696E+00  7.86827235E+00  1.88128854E+00  5.44249258E-01
  1.68714478E-01  8.00000000E-01  3.04752488E+03  4.57369518E+02  1.03948685E+02
  2.92101553E+01  9.28666296E+00  3.16392696E+00  7.86827235E+00  1.88128854E+00
  5.44249258E-01  1.68714478E-01  8.00000000E-01  3.04752488E+03  4.57369518E+02
  1.03948685E+02  2.92101553E+01  9.28666296E+00  3.16392696E+00  7.86827235E+00
  1.88128854E+00  5.44249258E-01  1.68714478E-01  8.00000000E-01  1.87311370E+01
  2.82539436E+00  6.40121692E-01  1.61277759E-01  3.04752488E+03  4.57369518E+02
  1.03948685E+02  2.92101553E+01  9.28666296E+00  3.16392696E+00  7.86827235E+00
  1.88128854E+00  5.44249258E-01  1.68714478E-01  8.00000000E-01  1.87311370E+01
  2.82539436E+00  6.40121692E-01  1.61277759E-01  3.04752488E+03  4.57369518E+02
  1.03948685E+02  2.92101553E+01  9.28666296E+00  3.16392696E+00  7.86827235E+00
  1.88128854E+00  5.44249258E-01  1.68714478E-01  8.00000000E-01  1.87311370E+01
  2.82539436E+00  6.40121692E-01  1.61277759E-01  1.87311370E+01  2.82539436E+00
  6.40121692E-01  1.61277759E-01  1.87311370E+01  2.82539436E+00  6.40121692E-01
  1.61277759E-01  1.87311370E+01  2.82539436E+00  6.40121692E-01  1.61277759E-01
  1.87311370E+01  2.82539436E+00  6.40121692E-01  1.61277759E-01
Contraction coefficients                   R   N=         109
  1.83473713E-03  1.40373228E-02  6.88426223E-02  2.32184443E-01  4.67941348E-01
  3.62311985E-01 -1.19332420E-01 -1.60854152E-01  1.14345644E+00  1.00000000E+00
  1.00000000E+00  3.34946043E-02  2.34726953E-01  8.13757326E-01  1.00000000E+00
  1.83473713E-03  1.40373228E-02  6.88426223E-02  2.32184443E-01  4.67941348E-01
  3.62311985E-01 -1.19332420E-01 -1.60854152E-01  1.14345644E+00  1.00000000E+00
  1.00000000E+00  1.83473713E-03  1.40373228E-02  6.88426223E-02  2.32184443E-01
  4.67941348E-01  3.62311985E-01 -1.19332420E-01 -1.60854152E-01  1.14345644E+00
  1.00000000E+00  1.00000000E+00  1.83473713E-03  1.40373228E-02  6.88426223E-02
  2.32184443E-01  4.67941348E-01  3.62311985E-01 -1.19332420E-01 -1.60854152E-01
  1.14345644E+00  1.00000000E+00  1.00000000E+00  1.83473713E-03  1.40373228E-02
  6.88426223E-02  2.32184443E-01  4.67941348E-01  3.62311985E-01 -1.19332420E-01
 -1.60854152E-01  1.14345644E+00  1.00000000E+00  1.00000000E+00  3.34946043E-02
  2.34726953E-01  8.13757326E-01  1.00000000E+00  1.83473713E-03  1.40373228E-02
  6.88426223E-02  2.32184443E-01  4.67941348E-01  3.62311985E-01 -1.19332420E-01
 -1.60854152E-01  1.14345644E+00  1.00000000E+00  1.00000000E+00  3.34946043E-02
  2.34726953E-01  8.13757326E-01  1.00000000E+00  1.83473713E-03  1.40373228E-02
  6.88426223E-02  2.32184443E-01  4.67941348E-01  3.62311985E-01 -1.19332420E-01
 -1.60854152E-01  1.14345644E+00  1.00000000E+00  1.00000000E+00  3.34946043E-02
  2.34726953E-01  8.13757326E-01  1.00000000E+00  3.34946043E-02  2.34726953E-01
  8.13757326E-01  1.00000000E+00  3.34946043E-02  2.34726953E-01  8.13757326E-01
  1.00000000E+00  3.34946043E-02  2.34726953E-01  8.13757326E-01  1.00000000E+00
  3.34946043E-02  2.34726953E-01  8.13757326E-01  1.00000000E+00
P(S=P) Contraction coefficients            R   N=         109
  0.00000000E+00  0.00000000E+00  0.00000000E+00  0.00000000E+00  0.00000000E+00
  0.00000000E+00  6.89990666E-02  3.16423961E-01  7.44308291E-01  1.00000000E+00
  0.00000000E+00  0.00000000E+00  0.00000000E+00  0.00000000E+00  0.00000000E+00
  0.00000000E+00  0.00000000E+00  0.00000000E+00  0.00000000E+00  0.00000000E+00
  0.00000000E+00  6.89990666E-02  3.16423961E-01  7.44308291E-01  1.00000000E+00
  0.00000000E+00  0.00000000E+00  0.00000000E+00  0.00000000E+00  0.00000000E+00
  0.00000000E+00  0.00000000E+00  6.89990666E-02  3.16423961E-01  7.44308291E-01
  1.00000000E+00  0.00000000E+00  0.00000000E+00  0.00000000E+00  0.00000000E+00
  0.00000000E+00  0.00000000E+00  0.00000000E+00  6.89990666E-02  3.16423961E-01
  7.44308291E-01  1.00000000E+00  0.00000000E+00  0.00000000E+00  0.00000000E+00
  0.00000000E+00  0.00000000E+00  0.00000000E+00  0.00000000E+00  6.89990666E-02
  3.16423961E-01  7.44308291E-01  1.00000000E+00  0.00000000E+00  0.00000000E+00
  0.00000000E+00  0.00000000E+00  0.00000000E+00  0.00000000E+00  0.00000000E+00
  0.00000000E+00  0.00000000E+00  0.00000000E+00  0.00000000E+00  6.89990666E-02
  3.16423961E-01  7.44308291E-01  1.00000000E+00  0.00000000E+00  0.00000000E+00
  0.00000000E+00  0.00000000E+00  0.00000000E+00  0.00000000E+00  0.00000000E+00
  0.00000000E+00  0.00000000E+00  0.00000000E+00  0.00000000E+00  6.89990666E-02
  3.16423961E-01  7.44308291E-01  1.00000000E+00  0.00000000E+00  0.00000000E+00
  0.00000000E+00  0.00000000E+00  0.00000000E+00  0.00000000E+00  0.00000000E+00
  0.00000000E+00  0.00000000E+00  0.00000000E+00  0.00000000E+00  0.00000000E+00
  0.00000000E+00  0.00000000E+00  0.00000000E+00  0.00000000E+00  0.00000000E+00
  0.00000000E+00  0.00000000E+00  0.00000000E+00  0.00000000E+00
Coordinates of each shell                  R   N=         132
  0.00000000E+00  0.00000000E+00  0.00000000E+00  0.00000000E+00  0.00000000E+00
  0.00000000E+00  0.00000000E+00  0.00000000E+00  0.00000000E+00  0.00000000E+00
  0.00000000E+00  0.00000000E+00  9.52557309E-01 -1.67507603E+00 -7.56939021E-01
  9.52557309E-01 -1.67507603E+00 -7.56939021E-01  0.00000000E+00  0.00000000E+00
  2.85483320E+00  0.00000000E+00  0.00000000E+00  2.85483320E+00  0.00000000E+00
  0.00000000E+00  2.85483320E+00  0.00000000E+00  0.00000000E+00  2.85483320E+00
 -2.71366372E-02  2.27382919E+00  4.21370706E+00 -2.71366372E-02  2.27382919E+00
  4.21370706E+00 -2.71366372E-02  2.27382919E+00  4.21370706E+00 -2.71366372E-02
  2.27382919E+00  4.21370706E+00 -2.51477950E-02 -2.27375850E+00  4.21386943E+00
 -2.51477950E-02 -2.27375850E+00  4.21386943E+00 -2.51477950E-02 -2.27375850E+00
  4.21386943E+00 -2.51477950E-02 -2.27375850E+00  4.21386943E+00 -8.93641469E-02
  2.27997993E+00  6.85282632E+00 -8.93641469E-02  2.27997993E+00  6.85282632E+00
 -8.93641469E-02  2.27997993E+00  6.85282632E+00 -8.93641469E-02  2.27997993E+00
  6.85282632E+00  4.39486046E-03  4.05821030E+00  3.19285909E+00  4.39486046E-03
  4.05821030E+00  3.19285909E+00 -8.73891374E-02 -2.27981541E+00  6.85300738E+00
 -8.73891374E-02 -2.27981541E+00  6.85300738E+00 -8.73891374E-02 -2.27981541E+00
  6.85300738E+00 -8.73891374E-02 -2.27981541E+00  6.85300738E+00  7.96069807E-03
 -4.05829491E+00  3.19332880E+00  7.96069807E-03 -4.05829491E+00  3.19332880E+00
 -1.21461221E-01  9.54878611E-05  8.18416432E+00 -1.21461221E-01  9.54878611E-05
  8.18416432E+00 -1.21461221E-01  9.54878611E-05  8.18416432E+00 -1.21461221E-01
  9.54878611E-05  8.18416432E+00 -1.05500027E-01  4.06558197E+00  7.86827504E+00
 -1.05500027E-01  4.06558197E+00  7.86827504E+00 -1.01960475E-01 -4.06545523E+00
  7.86840415E+00 -1.01960475E-01 -4.06545523E+00  7.86840415E+00 -1.64260135E-01
  2.79320418E-04  1.02372417E+01 -1.64260135E-01  2.79320418E-04  1.02372417E+01
  9.51392727E-01  1.67574835E+00 -7.56956633E-01  9.51392727E-01  1.67574835E+00
 -7.56956633E-01 -1.93749235E+00 -6.45246985E-04 -7.44997879E-01 -1.93749235E+00
 -6.45246985E-04 -7.44997879E-01
Num ILSW                                   I              100
ILSW                                       I   N=         100
           0           1           0           0           2           0
           0           0           0           0         402          -1
           5           0           0           0           0           0
           0           0           1           0           0           0
           1           1           0           0           0           0
           0           0      100000           0          -1           0
           0           0           0           0           0           0
           0           0           0           1           0           0
           0 -2000000000           1           0           0           0
           0           0           4          52           0           0
           0           0           5           0           0           0
           0           0           0           0           0           1
           0           0           0           0           0           0
           0           0           0           0           0           0
           0           0           0           0           0           0
           0           0           0           0           0           0
           0           0           0           0
Num RLSW                                   I               52
RLSW                                       R   N=          52
  8.00000000E-01  7.20000000E-01  1.00000000E+00  8.10000000E-01  2.00000000E-01
  0.00000000E+00  0.00000000E+00  1.00000000E+00  0.00000000E+00  0.00000000E+00
  0.00000000E+00  0.00000000E+00  1.00000000E+00  0.00000000E+00  0.00000000E+00
  0.00000000E+00  0.00000000E+00  1.00000000E+00  0.00000000E+00  0.00000000E+00
  0.00000000E+00  0.00000000E+00  1.00000000E+00  0.00000000E+00  0.00000000E+00
  0.00000000E+00  0.00000000E+00  1.00000000E+00  0.00000000E+00  0.00000000E+00
  0.00000000E+00  0.00000000E+00  1.00000000E+00  0.00000000E+00  0.00000000E+00
  0.00000000E+00  0.00000000E+00  0.00000000E+00  1.00000000E+00  1.00000000E+00
  0.00000000E+00  1.00000000E+00  0.00000000E+00  0.00000000E+00  0.00000000E+00
  0.00000000E+00  0.00000000E+00  0.00000000E+00  0.00000000E+00  0.00000000E+00
  0.00000000E+00  0.00000000E+00
MxBond                                     I                4
NBond                                      I   N=          15
           4           1           3           3           3           3
           1           3           1           3           1           1
           1           1           1
IBond                                      I   N=          60
           2           3          14          15           1           0
           0           0           1           4           5           0
           3           6           7           0           3           8
           9           0           4          10          11           0
           4           0           0           0           5          10
          12           0           5           0           0           0
           6           8          13           0           6           0
           0           0           8           0           0           0
          10           0           0           0           1           0
           0           0           1           0           0           0
RBond                                      R   N=          60
  1.00000000E+00  1.00000000E+00  1.00000000E+00  1.00000000E+00  1.00000000E+00
  0.00000000E+00  0.00000000E+00  0.00000000E+00  1.00000000E+00  1.50000000E+00
  1.50000000E+00  0.00000000E+00  1.50000000E+00  1.50000000E+00  1.00000000E+00
  0.00000000E+00  1.50000000E+00  1.50000000E+00  1.00000000E+00  0.00000000E+00
  1.50000000E+00  1.50000000E+00  1.00000000E+00  0.00000000E+00  1.00000000E+00
  0.00000000E+00  0.00000000E+00  0.00000000E+00  1.50000000E+00  1.50000000E+00
  1.00000000E+00  0.00000000E+00  1.00000000E+00  0.00000000E+00  0.00000000E+00
  0.00000000E+00  1.50000000E+00  1.50000000E+00  1.00000000E+00  0.00000000E+00
  1.00000000E+00  0.00000000E+00  0.00000000E+00  0.00000000E+00  1.00000000E+00
  0.00000000E+00  0.00000000E+00  0.00000000E+00  1.00000000E+00  0.00000000E+00
  0.00000000E+00  0.00000000E+00  1.00000000E+00  0.00000000E+00  0.00000000E+00
  0.00000000E+00  1.00000000E+00  0.00000000E+00  0.00000000E+00  0.00000000E+00
Virial Ratio                               R      2.010160333222649E+00
SCF Energy                                 R     -2.715666262293151E+02
Total Energy                               R     -2.715666262293151E+02
RMS Density                                R      3.911972991413545E-09
Job Status                                 I                1
Nuclear derivative order                   I                0
External E-field                           R   N=          35
  0.00000000E+00  0.00000000E+00  0.00000000E+00  0.00000000E+00  0.00000000E+00
  0.00000000E+00  0.00000000E+00  0.00000000E+00  0.00000000E+00  0.00000000E+00
  0.00000000E+00  0.00000000E+00  0.00000000E+00  0.00000000E+00  0.00000000E+00
  0.00000000E+00  0.00000000E+00  0.00000000E+00  0.00000000E+00  0.00000000E+00
  0.00000000E+00  0.00000000E+00  0.00000000E+00  0.00000000E+00  0.00000000E+00
  0.00000000E+00  0.00000000E+00  0.00000000E+00  0.00000000E+00  0.00000000E+00
  0.00000000E+00  0.00000000E+00  0.00000000E+00  0.00000000E+00  0.00000000E+00
IOpCl                                      I                0
IROHF                                      I                0
Alpha Orbital Energies                     R   N=         121
 -1.01928280E+01 -1.01848381E+01 -1.01847545E+01 -1.01830499E+01 -1.01821337E+01
 -1.01821207E+01 -1.01815333E+01 -8.47198798E-01 -7.64682955E-01 -7.36519533E-01
 -6.79574099E-01 -5.98066295E-01 -5.77198332E-01 -5.04560278E-01 -4.51211805E-01
 -4.50359742E-01 -4.16004083E-01 -4.13191577E-01 -4.02068130E-01 -3.81018209E-01
 -3.47057441E-01 -3.35854001E-01 -3.33389009E-01 -2.43370314E-01 -2.35195118E-01
  5.04700891E-03  6.35995589E-03  9.58340631E-02  1.21819752E-01  1.38162190E-01
  1.45792889E-01  1.65252947E-01  1.74207112E-01  1.88518784E-01  1.90446558E-01
  2.07233593E-01  2.39972265E-01  3.10650635E-01  3.20337931E-01  3.34630754E-01
  3.45847851E-01  4.56585788E-01  5.13893368E-01  5.23510531E-01  5.51277784E-01
  5.51394741E-01  5.65835270E-01  5.78379511E-01  6.01664813E-01  6.05504971E-01
  6.14085186E-01  6.20467282E-01  6.33228743E-01  6.53851718E-01  6.62117015E-01
  7.12010100E-01  7.41230579E-01  7.48870534E-01  7.74129509E-01  8.35583753E-01
  8.42679517E-01  8.46825245E-01  8.70373872E-01  8.82862099E-01  9.06536853E-01
  9.27664524E-01  9.46707037E-01  9.53977233E-01  9.70626640E-01  1.01073685E+00
  1.09233188E+00  1.11886657E+00  1.13841103E+00  1.19003699E+00  1.19821360E+00
  1.26532700E+00  1.35942695E+00  1.38655749E+00  1.44549448E+00  1.45016902E+00
  1.47661188E+00  1.48989922E+00  1.50116877E+00  1.52092738E+00  1.79183558E+00
  1.80335462E+00  1.83947092E+00  1.89287773E+00  1.89644141E+00  1.90859684E+00
  1.92316759E+00  1.98160918E+00  2.05800918E+00  2.07643642E+00  2.12298489E+00
  2.14241364E+00  2.17015794E+00  2.18564678E+00  2.26457251E+00  2.27338726E+00
  2.31521758E+00  2.32683433E+00  2.35981019E+00  2.42372908E+00  2.57433165E+00
  2.57853349E+00  2.66217170E+00  2.72409765E+00  2.74004305E+00  2.74436240E+00
  2.77182660E+00  2.87180632E+00  3.05310269E+00  3.41048683E+00  4.09046588E+00
  4.12018318E+00  4.12306774E+00  4.23750034E+00  4.33453835E+00  4.39693731E+00
  4.69466842E+00
Alpha MO coefficients                      R   N=       14641
  1.06263300E-02  4.41732343E-04 -7.78975493E-05 -1.00733104E-08 -3.02673057E-04
  2.13132296E-03  4.21389969E-04 -6.06975138E-09  1.37386324E-03 -1.27263635E-04
 -2.15800833E-04 -6.02434414E-04  3.94332159E-08 -7.97686161E-06 -1.42079393E-08
 -9.94908637E-05 -3.85657229E-05  9.92196597E-01  4.95370299E-02 -1.79433574E-05
 -5.74379489E-09  2.66801256E-05 -1.89908519E-02  8.07154832E-06  1.09433765E-07
 -2.57953220E-03 -9.35742266E-03 -8.99263441E-03 -9.14363864E-03 -1.84393025E-07
  1.59631833E-05 -1.74080224E-08  2.42834745E-02  6.51698158E-04 -4.74822468E-06
  3.22379879E-04  1.43686563E-04  7.19147328E-03  8.37721467E-06 -3.40464967E-03
 -2.88783663E-05 -4.21509043E-04 -6.16523476E-04 -5.35933297E-04  1.61163450E-06
  2.66094663E-06 -1.34580581E-04  2.42854249E-02  6.51789965E-04 -4.46685892E-06
 -3.22396372E-04  1.43720251E-04  7.19145662E-03  5.40114616E-06  3.40489447E-03
 -2.94646445E-05 -4.21527879E-04 -6.16538749E-04 -5.35965893E-04 -1.41523191E-06
  2.54211575E-06  1.34585541E-04  8.16266367E-04  1.21715962E-04 -3.33207219E-07
 -2.58932005E-06  2.81788635E-05 -3.13045383E-03 -2.15559457E-05  1.81902478E-03
  8.00702142E-04  2.75553104E-05  2.09399714E-05  6.99868274E-05 -1.97917354E-07
 -3.90666993E-07  2.37661281E-05 -1.61030747E-05  4.60486938E-04  8.16199388E-04
  1.21723829E-04 -3.35340052E-07  2.58779861E-06  2.81850555E-05 -3.13052082E-03
 -1.99746659E-05 -1.81925193E-03  8.00492257E-04  2.75586268E-05  2.09328717E-05
  6.99860655E-05  2.01770316E-07 -3.69859317E-07 -2.37590774E-05 -1.61056976E-05
  4.60544927E-04 -3.48713953E-04 -2.29955298E-04 -4.29639135E-07  1.50303819E-09
  2.50238633E-05  3.28775253E-03  4.72115076E-05 -2.70538439E-07 -1.91866523E-03
 -7.82135047E-05  1.17673404E-05 -1.09299645E-05 -4.55571852E-08 -2.21498806E-06
  6.31425350E-10 -6.91828586E-05 -3.89290515E-04 -6.91827751E-05 -3.89310261E-04
  4.77783670E-05  4.72437925E-04 -9.94880924E-05 -3.83802380E-05 -1.68639905E-04
  6.73405849E-04 -4.38018503E-04 -1.46809635E-04  9.29081980E-06 -4.14589973E-08
 -2.56327357E-05  1.29448552E-05 -8.42999779E-05  1.10367835E-06  1.02522844E-04
 -4.51974543E-05 -3.14588674E-05  8.22587405E-06  5.89681318E-08  4.24182761E-07
  1.74002998E-07 -2.20874141E-05  4.54178222E-05 -4.35735825E-03 -1.56596649E-04
  6.05697474E-07 -2.35173664E-07 -7.07763081E-05 -3.99642319E-03  6.91670786E-05
 -1.50982793E-06 -2.11681412E-03  5.61153155E-05  6.29630232E-05  5.50220020E-05
 -3.69087131E-09 -4.14885047E-06  1.17984079E-07  6.80329400E-02  2.81931002E-03
  6.24096467E-06  4.96213004E-05 -2.58119274E-04  6.30023211E-03 -7.39098273E-05
 -2.41208303E-03  2.66013640E-03 -8.54847303E-04 -7.89077282E-04 -9.03357248E-04
  1.92369683E-06  1.23236110E-06 -2.67561751E-05  6.73942830E-02  2.79015534E-03
  6.25037260E-06 -4.96615736E-05 -2.55958127E-04  6.27411984E-03 -7.57856730E-05
  2.40693857E-03  2.64765406E-03 -8.47849297E-04 -7.81671212E-04 -8.94582198E-04
 -1.98360937E-06  1.16210444E-06  2.63995646E-05  6.84829028E-01  3.42000964E-02
  3.75137945E-06 -2.45938263E-05 -9.10990783E-05 -1.35681735E-02 -4.67106504E-05
  3.11707834E-03  2.11799718E-03 -6.59364251E-03 -6.39997884E-03 -6.40564136E-03
  1.64167439E-06 -4.92321809E-06 -3.13563978E-05  2.22319751E-05  8.55161354E-04
  6.78417654E-01  3.38798012E-02  3.70448772E-06  2.31186037E-05 -9.07415915E-05
 -1.34740262E-02 -4.38450762E-05 -3.10332847E-03  2.11186758E-03 -6.53197063E-03
 -6.33957159E-03 -6.34606313E-03 -1.81992970E-06 -4.90214136E-06  3.09949865E-05
  2.26985019E-05  8.52894148E-04  2.16688312E-01  9.98089545E-03 -4.45969870E-06
 -1.65706388E-06  2.63702933E-04  7.37127561E-03  1.00056726E-04  9.46518156E-06
 -4.38314746E-03 -2.36647905E-03 -2.58516104E-03 -2.34306138E-03  9.55208822E-08
 -8.66255701E-07  5.28779193E-07 -3.59223783E-04  5.70177194E-04 -3.56564376E-04
  5.61333458E-04 -5.60128603E-05  1.28960021E-03 -2.23130157E-05  4.49198704E-05
 -2.87727185E-05 -6.51524234E-05 -2.10320800E-06 -6.75246067E-07  3.82848671E-08
  9.63314754E-06 -1.19734011E-07  7.93295565E-08 -2.74160642E-07 -2.42649301E-04
  4.84664667E-07 -1.99844789E-07 -1.49188987E-07  4.08747283E-08 -1.45671207E-05
  1.86892761E-08 -3.78753717E-05 -2.51935471E-05 -5.02012115E-05 -2.10558735E-05
 -8.03161733E-07 -1.90108828E-08  5.43816036E-05 -3.36325193E-07 -1.77022653E-05
  1.53815848E-07  3.42228649E-04 -9.42525155E-06  2.55513508E-07  2.76923449E-07
  2.48617446E-07 -8.43945730E-08 -9.34878174E-09 -2.35231157E-05 -7.36939697E-02
 -3.38449789E-03 -3.73949309E-06  3.74948801E-06  2.28836565E-04 -2.75216428E-03
  2.56505203E-05  5.75032965E-04 -1.28337278E-03  8.00887155E-04  8.43660415E-04
  9.92551993E-04 -8.77285835E-07 -5.33412752E-06  3.78841236E-05  7.43556517E-02
  3.41230501E-03  3.79531370E-06  3.29772936E-06 -2.31159436E-04  2.80811647E-03
 -2.68391541E-05  5.96598778E-04  1.30722169E-03 -8.09067435E-04 -8.51215930E-04
 -1.00115111E-03 -8.52937010E-07  5.31401688E-06  3.81192140E-05 -6.94944246E-01
 -3.47222457E-02 -3.08370601E-06  1.60874915E-04  3.65535020E-05  1.01942299E-02
  2.00174953E-05 -1.50582138E-03 -6.40621212E-04  6.68684306E-03  6.54485949E-03
  6.46595238E-03 -2.06736382E-06  4.96447587E-06  4.23394763E-05  5.29627133E-05
 -2.46406202E-04  7.01175265E-01  3.50333443E-02  2.98212396E-06  1.61059488E-04
 -3.73788748E-05 -1.03160473E-02 -1.91310673E-05 -1.53337517E-03  6.59776628E-04
 -6.74689581E-03 -6.60310301E-03 -6.52437332E-03 -2.22979435E-06 -5.04453667E-06
  4.26368431E-05 -5.27912651E-05  2.54157287E-04  1.06066270E-03  4.91244095E-05
 -1.79772875E-07  3.68665091E-04  1.19486321E-06  3.21676368E-05  1.38662046E-06
 -2.15800903E-03 -1.95015548E-05 -1.14845448E-05 -1.24542279E-05 -1.13659633E-05
  2.64947874E-06  4.25240728E-08 -1.08544444E-04  2.89023499E-04 -9.56149566E-04
 -2.92285200E-04  9.61512285E-04 -2.90570069E-07  5.96003886E-06  2.49872496E-05
  5.06181444E-05 -1.26184230E-07 -2.87515478E-07  5.45087404E-04  3.44757814E-05
 -5.12110600E-06  6.10470458E-10  5.06820923E-05  9.91445244E-04  5.24898556E-05
  1.11320612E-09  3.40796259E-04  9.64225283E-06  7.77490398E-06  6.44329220E-07
  8.37923144E-10  1.09969671E-06  2.33243261E-09 -1.04052866E-05 -4.04277780E-05