PMe3_new_1 0.0                                                          
SP        RB3LYP                                                      6-31G(d)            
Number of atoms                            I               17
Info1-9                                    I   N=           9
          26          26           0           0           0         110
           1          18        -502
Full Title                                 C   N=           2
PMe3_new_1 0.0          
Route                                      C   N=           2
# nosymm b3lyp/6-31G*   
Charge                                     I                1
Multiplicity                               I                1
Number of electrons                        I               50
Number of alpha electrons                  I               25
Number of beta electrons                   I               25
Number of basis functions                  I              103
Number of independent functions            I              103
Number of point charges in /Mol/           I                0
Number of translation vectors              I                0
Atomic numbers                             I   N=          17
           6           1           6           1           1           1
           6           1           1           1           6           1
           1           1          15           1           1
Nuclear charges                            R   N=          17
  6.00000000E+00  1.00000000E+00  6.00000000E+00  1.00000000E+00  1.00000000E+00
  1.00000000E+00  6.00000000E+00  1.00000000E+00  1.00000000E+00  1.00000000E+00
  6.00000000E+00  1.00000000E+00  1.00000000E+00  1.00000000E+00  1.50000000E+01
  1.00000000E+00  1.00000000E+00
Current cartesian coordinates              R   N=          51
  0.00000000E+00  0.00000000E+00  0.00000000E+00  9.25263484E-01  1.70945135E+00
 -7.06233587E-01  3.22985732E+00  8.84635601E-02  4.56976278E+00  4.17406374E+00
  1.79704054E+00  3.88671809E+00  3.24737975E+00  9.16178154E-02  6.63780675E+00
  4.26467560E+00 -1.56858335E+00  3.89116328E+00 -1.69199554E+00  2.75270900E+00
  4.56978940E+00 -1.69893357E+00  2.76916067E+00  6.63784252E+00 -7.77913356E-01
  4.47754097E+00  3.88667506E+00 -3.64524006E+00  2.71290409E+00  3.89122409E+00
 -1.53834782E+00 -2.84160986E+00  4.56969204E+00 -5.29158161E-01 -4.51348756E+00
  3.88881140E+00 -1.54684541E+00 -2.85726443E+00  6.63777218E+00 -3.48994725E+00
 -2.91063538E+00  3.88881244E+00  0.00000000E+00  0.00000000E+00  3.42717769E+00
 -1.94303008E+00 -5.34922317E-02 -7.06350391E-01  1.01784776E+00 -1.65602636E+00
 -7.06154446E-01
Number of symbols in /Mol/                 I                0
Force Field                                I                0
Atom Types                                 C   N=          17
                                                            
                                                            
                                                            
                        
Int Atom Types                             I   N=          17
           0           0           0           0           0           0
           0           0           0           0           0           0
           0           0           0           0           0
MM charges                                 R   N=          17
  0.00000000E+00  0.00000000E+00  0.00000000E+00  0.00000000E+00  0.00000000E+00
  0.00000000E+00  0.00000000E+00  0.00000000E+00  0.00000000E+00  0.00000000E+00
  0.00000000E+00  0.00000000E+00  0.00000000E+00  0.00000000E+00  0.00000000E+00
  0.00000000E+00  0.00000000E+00
Integer atomic weights                     I   N=          17
          12           1          12           1           1           1
          12           1           1           1          12           1
           1           1          31           1           1
Real atomic weights                        R   N=          17
  1.20000000E+01  1.00782504E+00  1.20000000E+01  1.00782504E+00  1.00782504E+00
  1.00782504E+00  1.20000000E+01  1.00782504E+00  1.00782504E+00  1.00782504E+00
  1.20000000E+01  1.00782504E+00  1.00782504E+00  1.00782504E+00  3.09737634E+01
  1.00782504E+00  1.00782504E+00
Atom fragment info                         I   N=          17
           0           0           0           0           0           0
           0           0           0           0           0           0
           0           0           0           0           0
Atom residue num                           I   N=          17
           0           0           0           0           0           0
           0           0           0           0           0           0
           0           0           0           0           0
Nuclear spins                              I   N=          17
           0           1           0           1           1           1
           0           1           1           1           0           1
           1           1           1           1           1
Nuclear ZEff                               R   N=          17
 -3.60000000E+00 -1.00000000E+00 -3.60000000E+00 -1.00000000E+00 -1.00000000E+00
 -1.00000000E+00 -3.60000000E+00 -1.00000000E+00 -1.00000000E+00 -1.00000000E+00
 -3.60000000E+00 -1.00000000E+00 -1.00000000E+00 -1.00000000E+00 -1.29400000E+01
 -1.00000000E+00 -1.00000000E+00
Nuclear ZNuc                               R   N=          17
  6.00000000E+00  1.00000000E+00  6.00000000E+00  1.00000000E+00  1.00000000E+00
  1.00000000E+00  6.00000000E+00  1.00000000E+00  1.00000000E+00  1.00000000E+00
  6.00000000E+00  1.00000000E+00  1.00000000E+00  1.00000000E+00  1.50000000E+01
  1.00000000E+00  1.00000000E+00
Nuclear QMom                               R   N=          17
  0.00000000E+00  0.00000000E+00  0.00000000E+00  0.00000000E+00  0.00000000E+00
  0.00000000E+00  0.00000000E+00  0.00000000E+00  0.00000000E+00  0.00000000E+00
  0.00000000E+00  0.00000000E+00  0.00000000E+00  0.00000000E+00  0.00000000E+00
  0.00000000E+00  0.00000000E+00
Nuclear GFac                               R   N=          17
  0.00000000E+00  2.79284600E+00  0.00000000E+00  2.79284600E+00  2.79284600E+00
  2.79284600E+00  0.00000000E+00  2.79284600E+00  2.79284600E+00  2.79284600E+00
  0.00000000E+00  2.79284600E+00  2.79284600E+00  2.79284600E+00  1.13160000E+00
  2.79284600E+00  2.79284600E+00
MicOpt                                     I   N=          17
          -1          -1          -1          -1          -1          -1
          -1          -1          -1          -1          -1          -1
          -1          -1          -1          -1          -1
Number of residues                         I                0
Number of secondary structures             I                0
Number of contracted shells                I               45
Number of primitive shells                 I              109
Pure/Cartesian d shells                    I                1
Pure/Cartesian f shells                    I                0
Highest angular momentum                   I                2
Largest degree of contraction              I                6
Shell types                                I   N=          45
           0          -1          -1           2           0           0
           0          -1          -1           2           0           0
           0           0           0           0           0          -1
          -1           2           0           0           0           0
           0           0           0          -1          -1           2
           0           0           0           0           0           0
           0          -1          -1          -1           2           0
           0           0           0
Number of primitives per shell             I   N=          45
           6           3           1           1           3           1
           6           3           1           1           3           1
           3           1           3           1           6           3
           1           1           3           1           3           1
           3           1           6           3           1           1
           3           1           3           1           3           1
           6           6           3           1           1           3
           1           3           1
Shell to atom map                          I   N=          45
           1           1           1           1           2           2
           3           3           3           3           4           4
           5           5           6           6           7           7
           7           7           8           8           9           9
          10          10          11          11          11          11
          12          12          13          13          14          14
          15          15          15          15          15          16
          16          17          17
Primitive exponents                        R   N=         109
  3.04752488E+03  4.57369518E+02  1.03948685E+02  2.92101553E+01  9.28666296E+00
  3.16392696E+00  7.86827235E+00  1.88128854E+00  5.44249258E-01  1.68714478E-01
  8.00000000E-01  1.87311370E+01  2.82539436E+00  6.40121692E-01  1.61277759E-01
  3.04752488E+03  4.57369518E+02  1.03948685E+02  2.92101553E+01  9.28666296E+00
  3.16392696E+00  7.86827235E+00  1.88128854E+00  5.44249258E-01  1.68714478E-01
  8.00000000E-01  1.87311370E+01  2.82539436E+00  6.40121692E-01  1.61277759E-01
  1.87311370E+01  2.82539436E+00  6.40121692E-01  1.61277759E-01  1.87311370E+01
  2.82539436E+00  6.40121692E-01  1.61277759E-01  3.04752488E+03  4.57369518E+02
  1.03948685E+02  2.92101553E+01  9.28666296E+00  3.16392696E+00  7.86827235E+00
  1.88128854E+00  5.44249258E-01  1.68714478E-01  8.00000000E-01  1.87311370E+01
  2.82539436E+00  6.40121692E-01  1.61277759E-01  1.87311370E+01  2.82539436E+00
  6.40121692E-01  1.61277759E-01  1.87311370E+01  2.82539436E+00  6.40121692E-01
  1.61277759E-01  3.04752488E+03  4.57369518E+02  1.03948685E+02  2.92101553E+01
  9.28666296E+00  3.16392696E+00  7.86827235E+00  1.88128854E+00  5.44249258E-01
  1.68714478E-01  8.00000000E-01  1.87311370E+01  2.82539436E+00  6.40121692E-01
  1.61277759E-01  1.87311370E+01  2.82539436E+00  6.40121692E-01  1.61277759E-01
  1.87311370E+01  2.82539436E+00  6.40121692E-01  1.61277759E-01  1.94133000E+04
  2.90942000E+03  6.61364000E+02  1.85759000E+02  5.91943000E+01  2.00310000E+01
  3.39478000E+02  8.10101000E+01  2.58780000E+01  9.45221000E+00  3.66566000E+00
  1.46746000E+00  2.15623000E+00  7.48997000E-01  2.83145000E-01  9.98317000E-02
  5.50000000E-01  1.87311370E+01  2.82539436E+00  6.40121692E-01  1.61277759E-01
  1.87311370E+01  2.82539436E+00  6.40121692E-01  1.61277759E-01
Contraction coefficients                   R   N=         109
  1.83473713E-03  1.40373228E-02  6.88426223E-02  2.32184443E-01  4.67941348E-01
  3.62311985E-01 -1.19332420E-01 -1.60854152E-01  1.14345644E+00  1.00000000E+00
  1.00000000E+00  3.34946043E-02  2.34726953E-01  8.13757326E-01  1.00000000E+00
  1.83473713E-03  1.40373228E-02  6.88426223E-02  2.32184443E-01  4.67941348E-01
  3.62311985E-01 -1.19332420E-01 -1.60854152E-01  1.14345644E+00  1.00000000E+00
  1.00000000E+00  3.34946043E-02  2.34726953E-01  8.13757326E-01  1.00000000E+00
  3.34946043E-02  2.34726953E-01  8.13757326E-01  1.00000000E+00  3.34946043E-02
  2.34726953E-01  8.13757326E-01  1.00000000E+00  1.83473713E-03  1.40373228E-02
  6.88426223E-02  2.32184443E-01  4.67941348E-01  3.62311985E-01 -1.19332420E-01
 -1.60854152E-01  1.14345644E+00  1.00000000E+00  1.00000000E+00  3.34946043E-02
  2.34726953E-01  8.13757326E-01  1.00000000E+00  3.34946043E-02  2.34726953E-01
  8.13757326E-01  1.00000000E+00  3.34946043E-02  2.34726953E-01  8.13757326E-01
  1.00000000E+00  1.83473713E-03  1.40373228E-02  6.88426223E-02  2.32184443E-01
  4.67941348E-01  3.62311985E-01 -1.19332420E-01 -1.60854152E-01  1.14345644E+00
  1.00000000E+00  1.00000000E+00  3.34946043E-02  2.34726953E-01  8.13757326E-01
  1.00000000E+00  3.34946043E-02  2.34726953E-01  8.13757326E-01  1.00000000E+00
  3.34946043E-02  2.34726953E-01  8.13757326E-01  1.00000000E+00  1.85159892E-03
  1.42061917E-02  6.99994593E-02  2.40078860E-01  4.84761718E-01  3.35199805E-01
 -2.78217010E-03 -3.60499014E-02 -1.16631004E-01  9.68328036E-02  6.14418023E-01
  4.03798015E-01 -2.52924114E-01  3.28518447E-02  1.08125476E+00  1.00000000E+00
  1.00000000E+00  3.34946043E-02  2.34726953E-01  8.13757326E-01  1.00000000E+00
  3.34946043E-02  2.34726953E-01  8.13757326E-01  1.00000000E+00
P(S=P) Contraction coefficients            R   N=         109
  0.00000000E+00  0.00000000E+00  0.00000000E+00  0.00000000E+00  0.00000000E+00
  0.00000000E+00  6.89990666E-02  3.16423961E-01  7.44308291E-01  1.00000000E+00
  0.00000000E+00  0.00000000E+00  0.00000000E+00  0.00000000E+00  0.00000000E+00
  0.00000000E+00  0.00000000E+00  0.00000000E+00  0.00000000E+00  0.00000000E+00
  0.00000000E+00  6.89990666E-02  3.16423961E-01  7.44308291E-01  1.00000000E+00
  0.00000000E+00  0.00000000E+00  0.00000000E+00  0.00000000E+00  0.00000000E+00
  0.00000000E+00  0.00000000E+00  0.00000000E+00  0.00000000E+00  0.00000000E+00
  0.00000000E+00  0.00000000E+00  0.00000000E+00  0.00000000E+00  0.00000000E+00
  0.00000000E+00  0.00000000E+00  0.00000000E+00  0.00000000E+00  6.89990666E-02
  3.16423961E-01  7.44308291E-01  1.00000000E+00  0.00000000E+00  0.00000000E+00
  0.00000000E+00  0.00000000E+00  0.00000000E+00  0.00000000E+00  0.00000000E+00
  0.00000000E+00  0.00000000E+00  0.00000000E+00  0.00000000E+00  0.00000000E+00
  0.00000000E+00  0.00000000E+00  0.00000000E+00  0.00000000E+00  0.00000000E+00
  0.00000000E+00  0.00000000E+00  6.89990666E-02  3.16423961E-01  7.44308291E-01
  1.00000000E+00  0.00000000E+00  0.00000000E+00  0.00000000E+00  0.00000000E+00
  0.00000000E+00  0.00000000E+00  0.00000000E+00  0.00000000E+00  0.00000000E+00
  0.00000000E+00  0.00000000E+00  0.00000000E+00  0.00000000E+00  0.00000000E+00
  0.00000000E+00  0.00000000E+00  0.00000000E+00  0.00000000E+00  0.00000000E+00
  4.56461619E-03  3.36935719E-02  1.39754883E-01  3.39361717E-01  4.50920624E-01
  2.38585801E-01 -1.77653127E-02  2.74058196E-01  7.85421563E-01  1.00000000E+00
  0.00000000E+00  0.00000000E+00  0.00000000E+00  0.00000000E+00  0.00000000E+00
  0.00000000E+00  0.00000000E+00  0.00000000E+00  0.00000000E+00
Coordinates of each shell                  R   N=         135
  0.00000000E+00  0.00000000E+00  0.00000000E+00  0.00000000E+00  0.00000000E+00
  0.00000000E+00  0.00000000E+00  0.00000000E+00  0.00000000E+00  0.00000000E+00
  0.00000000E+00  0.00000000E+00  9.25263484E-01  1.70945135E+00 -7.06233587E-01
  9.25263484E-01  1.70945135E+00 -7.06233587E-01  3.22985732E+00  8.84635601E-02
  4.56976278E+00  3.22985732E+00  8.84635601E-02  4.56976278E+00  3.22985732E+00
  8.84635601E-02  4.56976278E+00  3.22985732E+00  8.84635601E-02  4.56976278E+00
  4.17406374E+00  1.79704054E+00  3.88671809E+00  4.17406374E+00  1.79704054E+00
  3.88671809E+00  3.24737975E+00  9.16178154E-02  6.63780675E+00  3.24737975E+00
  9.16178154E-02  6.63780675E+00  4.26467560E+00 -1.56858335E+00  3.89116328E+00
  4.26467560E+00 -1.56858335E+00  3.89116328E+00 -1.69199554E+00  2.75270900E+00
  4.56978940E+00 -1.69199554E+00  2.75270900E+00  4.56978940E+00 -1.69199554E+00
  2.75270900E+00  4.56978940E+00 -1.69199554E+00  2.75270900E+00  4.56978940E+00
 -1.69893357E+00  2.76916067E+00  6.63784252E+00 -1.69893357E+00  2.76916067E+00
  6.63784252E+00 -7.77913356E-01  4.47754097E+00  3.88667506E+00 -7.77913356E-01
  4.47754097E+00  3.88667506E+00 -3.64524006E+00  2.71290409E+00  3.89122409E+00
 -3.64524006E+00  2.71290409E+00  3.89122409E+00 -1.53834782E+00 -2.84160986E+00
  4.56969204E+00 -1.53834782E+00 -2.84160986E+00  4.56969204E+00 -1.53834782E+00
 -2.84160986E+00  4.56969204E+00 -1.53834782E+00 -2.84160986E+00  4.56969204E+00
 -5.29158161E-01 -4.51348756E+00  3.88881140E+00 -5.29158161E-01 -4.51348756E+00
  3.88881140E+00 -1.54684541E+00 -2.85726443E+00  6.63777218E+00 -1.54684541E+00
 -2.85726443E+00  6.63777218E+00 -3.48994725E+00 -2.91063538E+00  3.88881244E+00
 -3.48994725E+00 -2.91063538E+00  3.88881244E+00  0.00000000E+00  0.00000000E+00
  3.42717769E+00  0.00000000E+00  0.00000000E+00  3.42717769E+00  0.00000000E+00
  0.00000000E+00  3.42717769E+00  0.00000000E+00  0.00000000E+00  3.42717769E+00
  0.00000000E+00  0.00000000E+00  3.42717769E+00 -1.94303008E+00 -5.34922317E-02
 -7.06350391E-01 -1.94303008E+00 -5.34922317E-02 -7.06350391E-01  1.01784776E+00
 -1.65602636E+00 -7.06154446E-01  1.01784776E+00 -1.65602636E+00 -7.06154446E-01
Num ILSW                                   I              100
ILSW                                       I   N=         100
           0           1           0           0           2           0
           0           0           0           0         402          -1
           5           0           0           0           0           0
           0           0           1           0           0           0
           1           1           0           0           0           0
           0           0      100000           0          -1           0
           0           0           0           0           0           0
           0           0           0           1           0           0
           0 -2000000000           1           0           0           0
           0           0           4          52           0           0
           0           0           5           0           0           0
           0           0           0           0           0           1
           0           0           0           0           0           0
           0           0           0           0           0           0
           0           0           0           0           0           0
           0           0           0           0           0           0
           0           0           0           0
Num RLSW                                   I               52
RLSW                                       R   N=          52
  8.00000000E-01  7.20000000E-01  1.00000000E+00  8.10000000E-01  2.00000000E-01
  0.00000000E+00  0.00000000E+00  1.00000000E+00  0.00000000E+00  0.00000000E+00
  0.00000000E+00  0.00000000E+00  1.00000000E+00  0.00000000E+00  0.00000000E+00
  0.00000000E+00  0.00000000E+00  1.00000000E+00  0.00000000E+00  0.00000000E+00
  0.00000000E+00  0.00000000E+00  1.00000000E+00  0.00000000E+00  0.00000000E+00
  0.00000000E+00  0.00000000E+00  1.00000000E+00  0.00000000E+00  0.00000000E+00
  0.00000000E+00  0.00000000E+00  1.00000000E+00  0.00000000E+00  0.00000000E+00
  0.00000000E+00  0.00000000E+00  0.00000000E+00  1.00000000E+00  1.00000000E+00
  0.00000000E+00  1.00000000E+00  0.00000000E+00  0.00000000E+00  0.00000000E+00
  0.00000000E+00  0.00000000E+00  0.00000000E+00  0.00000000E+00  0.00000000E+00
  0.00000000E+00  0.00000000E+00
MxBond                                     I                4
NBond                                      I   N=          17
           4           1           4           1           1           1
           4           1           1           1           4           1
           1           1           4           1           1
IBond                                      I   N=          68
           2          15          16          17           1           0
           0           0           4           5           6          15
           3           0           0           0           3           0
           0           0           3           0           0           0
           8           9          10          15           7           0
           0           0           7           0           0           0
           7           0           0           0          12          13
          14          15          11           0           0           0
          11           0           0           0          11           0
           0           0           1           3           7          11
           1           0           0           0           1           0
           0           0
RBond                                      R   N=          68
  1.00000000E+00  1.00000000E+00  1.00000000E+00  1.00000000E+00  1.00000000E+00
  0.00000000E+00  0.00000000E+00  0.00000000E+00  1.00000000E+00  1.00000000E+00
  1.00000000E+00  1.00000000E+00  1.00000000E+00  0.00000000E+00  0.00000000E+00
  0.00000000E+00  1.00000000E+00  0.00000000E+00  0.00000000E+00  0.00000000E+00
  1.00000000E+00  0.00000000E+00  0.00000000E+00  0.00000000E+00  1.00000000E+00
  1.00000000E+00  1.00000000E+00  1.00000000E+00  1.00000000E+00  0.00000000E+00
  0.00000000E+00  0.00000000E+00  1.00000000E+00  0.00000000E+00  0.00000000E+00
  0.00000000E+00  1.00000000E+00  0.00000000E+00  0.00000000E+00  0.00000000E+00
  1.00000000E+00  1.00000000E+00  1.00000000E+00  1.00000000E+00  1.00000000E+00
  0.00000000E+00  0.00000000E+00  0.00000000E+00  1.00000000E+00  0.00000000E+00
  0.00000000E+00  0.00000000E+00  1.00000000E+00  0.00000000E+00  0.00000000E+00
  0.00000000E+00  1.00000000E+00  1.00000000E+00  1.00000000E+00  1.00000000E+00
  1.00000000E+00  0.00000000E+00  0.00000000E+00  0.00000000E+00  1.00000000E+00
  0.00000000E+00  0.00000000E+00  0.00000000E+00
Virial Ratio                               R      2.005971436603069E+00
SCF Energy                                 R     -5.008084374640340E+02
Total Energy                               R     -5.008084374640340E+02
RMS Density                                R      5.991498565789615E-09
Job Status                                 I                1
Nuclear derivative order                   I                0
External E-field                           R   N=          35
  0.00000000E+00  0.00000000E+00  0.00000000E+00  0.00000000E+00  0.00000000E+00
  0.00000000E+00  0.00000000E+00  0.00000000E+00  0.00000000E+00  0.00000000E+00
  0.00000000E+00  0.00000000E+00  0.00000000E+00  0.00000000E+00  0.00000000E+00
  0.00000000E+00  0.00000000E+00  0.00000000E+00  0.00000000E+00  0.00000000E+00
  0.00000000E+00  0.00000000E+00  0.00000000E+00  0.00000000E+00  0.00000000E+00
  0.00000000E+00  0.00000000E+00  0.00000000E+00  0.00000000E+00  0.00000000E+00
  0.00000000E+00  0.00000000E+00  0.00000000E+00  0.00000000E+00  0.00000000E+00
IOpCl                                      I                0
IROHF                                      I                0
Alpha Orbital Energies                     R   N=         103
 -7.73432951E+01 -1.03760457E+01 -1.03760438E+01 -1.03760420E+01 -1.03760372E+01
 -6.80869867E+00 -4.97024468E+00 -4.97024453E+00 -4.97024435E+00 -9.93804038E-01
 -8.91405062E-01 -8.91401290E-01 -8.91384001E-01 -7.33377762E-01 -6.34869608E-01
 -6.34865440E-01 -6.34861944E-01 -6.03603840E-01 -6.03598499E-01 -5.80010459E-01
 -5.80007036E-01 -5.80005530E-01 -5.40038948E-01 -5.40032026E-01 -5.40015093E-01
 -1.09692678E-01 -1.09665941E-01 -1.09661116E-01 -1.01868787E-01 -4.75360463E-02
 -4.25147541E-02 -4.25111216E-02 -3.84248077E-02 -3.84196425E-02 -3.84168012E-02
  6.72779642E-03  6.72942973E-03  6.73546943E-03  2.51858751E-02  2.51907818E-02
  2.51924288E-02  2.01738575E-01  2.01742163E-01  2.01746627E-01  2.50215848E-01
  2.50221816E-01  2.98430239E-01  4.40915057E-01  4.40928187E-01  4.40945498E-01
  4.74228651E-01  4.86533403E-01  4.86546353E-01  4.86566219E-01  5.80995067E-01
  5.80998187E-01  5.95499908E-01  5.95524839E-01  5.95564144E-01  7.08513206E-01
  7.08523771E-01  7.08532794E-01  7.13857193E-01  7.13863088E-01  7.13870796E-01
  7.23918458E-01  7.23926849E-01  7.23936653E-01  7.34531353E-01  7.62493654E-01
  7.62496126E-01  8.33713394E-01  8.33721551E-01  8.33728375E-01  1.11794085E+00
  1.11797027E+00  1.11801652E+00  1.24265606E+00  1.45041486E+00  1.45041903E+00
  1.45042370E+00  1.57141827E+00  1.57142196E+00  1.66845878E+00  1.66849922E+00
  1.66854306E+00  1.86142252E+00  2.04637156E+00  2.04639127E+00  2.04640985E+00
  2.06896919E+00  2.06898182E+00  2.06899175E+00  2.07492898E+00  2.07494253E+00
  2.07495157E+00  2.08885591E+00  2.08885861E+00  3.32568701E+00  3.97598667E+00
  4.03331476E+00  4.03332071E+00  4.03332224E+00
Alpha MO coefficients                      R   N=       10609
 -8.70687293E-06  8.07887073E-05 -3.56104889E-09  2.29394481E-09  1.01876631E-04
  7.13610414E-04  2.64707899E-08 -3.61343696E-08 -5.65041710E-05 -1.81362648E-05
 -1.81201073E-05 -1.91527034E-04  6.70079553E-09  3.19192702E-09  2.01605015E-09
 -5.83116801E-05 -3.13222835E-04 -8.70341971E-06  8.08054252E-05 -9.60041895E-05
 -2.63227599E-06 -3.39605729E-05  7.13545320E-04  5.32546084E-05  1.48089463E-06
  1.88235305E-05 -1.72153516E-04 -1.82435060E-05 -3.73952828E-05 -4.87444043E-06
 -6.29200159E-05 -1.72281162E-06 -5.82548699E-05 -3.13393131E-04 -5.82908683E-05
 -3.13306992E-04 -5.82760414E-05 -3.13327927E-04 -8.70581112E-06  8.07930355E-05
  5.03066225E-05 -8.18332487E-05 -3.39652409E-05  7.13489762E-04 -2.79401664E-05
  4.53815641E-05  1.88071253E-05 -6.03858639E-05 -1.29977936E-04 -3.73944255E-05
  7.93829131E-05  3.29551749E-05 -5.36077648E-05 -5.82874925E-05 -3.13276521E-04
 -5.82517379E-05 -3.13349785E-04 -5.82777856E-05 -3.13355411E-04 -8.70587714E-06
  8.07867254E-05  4.57465066E-05  8.45037112E-05 -3.39773903E-05  7.13315564E-04
 -2.53893252E-05 -4.68977208E-05  1.88751176E-05 -5.30345056E-05 -1.37263459E-04
 -3.73899440E-05 -7.44790307E-05  2.99413422E-05  5.53068382E-05 -5.82811288E-05
 -3.13259581E-04 -5.82354403E-05 -3.13409051E-04 -5.82863083E-05 -3.13253668E-04
  9.96242194E-01  1.41873828E-02 -3.12411970E-09 -3.77537221E-09  3.48773277E-09
 -2.73067253E-02  1.48476821E-08  1.71391067E-08 -3.33296187E-08  4.01953315E-03
 -4.60281470E-08 -7.66710702E-08  1.34965018E-07  9.45914919E-03  9.45914668E-03
  9.45914052E-03  5.85236991E-10  8.19389972E-09  2.53165709E-09 -5.82567230E-05
 -3.13362819E-04 -5.82629709E-05 -3.13410185E-04 -2.78280017E-01 -1.40321457E-02
 -7.29555007E-05  5.57063023E-06 -1.45552783E-04  4.04573663E-03  1.35616195E-04
 -1.01251365E-05 -3.80077827E-05  2.58739563E-03  2.54976513E-03  2.59695694E-03
  3.46515106E-06 -3.68911769E-05  2.83815478E-06  5.09809807E-05 -9.34594699E-04
  9.23727827E-01  4.67769503E-02 -4.40770012E-04 -4.54326160E-06 -1.64808722E-04
 -1.47338890E-02  1.06103968E-03  1.53236822E-05  3.91678009E-04 -8.69379724E-03
 -8.52317478E-03 -8.54555706E-03 -8.28126152E-06 -6.36624641E-05 -5.17602730E-06
 -5.38288248E-05  2.08997385E-03 -4.14367325E-05  1.96412239E-03 -4.54115589E-05
  2.00430907E-03 -2.17640984E-01 -1.09643443E-02 -1.15251601E-04  7.41801692E-05
 -6.04086401E-06  3.09802931E-03  6.34379724E-05  1.08345780E-04  1.12652597E-04
  2.00092311E-03  2.03039974E-03  2.01295009E-03  1.57347362E-05  7.47264549E-06
  3.90015398E-05  5.81028198E-05 -9.07950421E-04  4.56541614E-05 -7.82031597E-04
 -2.02045092E-05 -1.10585707E-04 -8.78670891E-02 -4.39914983E-03 -8.70773852E-05
 -2.04398052E-05 -2.42479071E-05  1.07044149E-03  2.71165908E-05 -2.11384513E-04
  1.45206180E-04  7.97439031E-04  8.17931244E-04  8.12429963E-04 -2.78745471E-05
  1.76558035E-05 -3.08449715E-05  4.28615177E-05 -5.41859597E-04  4.67117981E-05
 -5.81562845E-04 -3.14898864E-05  2.15868213E-04 -2.20505558E-06 -5.34395954E-05
 -2.53147333E-06  2.00784353E-07 -1.21645723E-06 -1.61265140E-04  4.39613510E-04
 -3.37718606E-05  2.09350079E-04  2.57805245E-03  2.16377923E-03 -1.66661035E-04
  1.03084158E-03 -3.59355493E-05 -4.32749120E-05 -4.32590206E-05  6.70368218E-07
  2.92465890E-06 -1.94792864E-07 -1.49107109E-05 -2.63280122E-04  5.93178734E-05
 -1.02014005E-03  7.46613983E-01  3.77868028E-02 -2.90289448E-05  3.44597869E-05
  3.81568791E-04 -1.17691777E-02  5.38606843E-05 -6.41325775E-05 -7.79427422E-04
 -6.88388020E-03 -6.89745619E-03 -7.03199217E-03  1.10594380E-05 -1.46849875E-05
  1.74243822E-05 -5.48280860E-05  1.78684972E-03  6.74596128E-02  3.42863218E-03
 -5.72227091E-05  3.39125970E-05  5.84980767E-05 -1.15829867E-03  2.00190925E-04
 -6.12213343E-05 -7.52098694E-05 -6.16769388E-04 -6.42407980E-04 -6.27962060E-04
 -1.24893125E-05 -4.27442685E-05 -1.71448741E-05  4.43777329E-06  7.80446263E-05
 -4.72538097E-05  6.04208527E-04  4.36860053E-05 -3.22261851E-04 -6.49303310E-01
 -3.28319295E-02 -1.61615791E-04  2.50511842E-04  1.58181586E-04  1.00395091E-02
  2.35221514E-04 -3.60848869E-04 -2.50278306E-04  6.01206551E-03  6.07237109E-03
  6.00261919E-03 -6.32617052E-05 -5.42179739E-06  1.45808724E-05  1.52627605E-05
 -1.19954204E-03  6.69370796E-05 -1.72554752E-03  5.95170735E-05 -1.65049767E-03
 -4.71135974E-02 -2.36748119E-03 -3.70990127E-05  1.96901224E-05  7.45019023E-05
  6.31335578E-04  2.22883685E-05 -1.23390830E-04 -1.03599882E-04  4.14399465E-04
  4.59422405E-04  4.31966042E-04  1.09438036E-05  3.27841419E-05  2.07334900E-05
  5.36027360E-05 -6.10114483E-04 -3.71974238E-05  3.15906965E-04  6.95129058E-06
 -1.34203925E-04 -7.62278036E-07 -1.84857422E-05 -1.02436768E-06  1.18170240E-06
  2.38239076E-06 -5.57521285E-05  1.75207505E-04 -2.07617590E-04 -4.13181089E-04
  8.92073315E-04  8.61788666E-04 -1.02200183E-03 -2.03429081E-03 -1.52657768E-05
 -1.78611773E-05 -9.27013235E-06  2.21549322E-06  1.16040519E-06 -1.38066026E-06
 -6.21655610E-05  1.86230645E-03 -1.55536399E-05  1.38711968E-03  4.64687553E-01
  2.36019174E-02 -1.31563049E-05 -7.06353547E-05  2.32114478E-04 -7.87499634E-03
  2.45167187E-05  1.31456774E-04 -1.01476065E-03 -4.28331778E-03 -4.29318426E-03
 -4.41537714E-03 -2.08336328E-05 -6.65104306E-06 -3.57107345E-05  4.11440862E-05
  4.14310246E-04  2.24702386E-01  1.14611958E-02 -1.11490133E-04 -7.32320540E-05
 -6.64964925E-06 -4.12578493E-03  7.67434410E-04  1.51280078E-04  2.09592730E-04
 -2.13978737E-03 -2.08029619E-03 -2.08405042E-03  2.45776820E-05 -4.66649543E-05
  3.04535017E-05  6.20025367E-05 -1.89598105E-04 -7.11554085E-06  5.16119477E-04