SiCl3                                                                   
SP        RB3LYP                                                      6-31G(d)            
Number of atoms                            I                5
Info1-9                                    I   N=           9
          14          14           0           0           0         110
           1          18        -502
Full Title                                 C   N=           1
SiCl3       
Route                                      C   N=           2
# nosymm b3lyp/6-31G*   
Charge                                     I                0
Multiplicity                               I                1
Number of electrons                        I               66
Number of alpha electrons                  I               33
Number of beta electrons                   I               33
Number of basis functions                  I               78
Number of independent functions            I               78
Number of point charges in /Mol/           I                0
Number of translation vectors              I                0
Atomic numbers                             I   N=           5
           1          14          17          17          17
Nuclear charges                            R   N=           5
  1.00000000E+00  1.40000000E+01  1.70000000E+01  1.70000000E+01  1.70000000E+01
Current cartesian coordinates              R   N=          15
  0.00000000E+00  0.00000000E+00  0.00000000E+00  0.00000000E+00  0.00000000E+00
  2.76570867E+00  1.81345678E+00 -3.15274348E+00  4.04800123E+00  1.82524867E+00
  3.14592157E+00  4.04800123E+00 -3.63740154E+00  6.80301405E-03  4.04654614E+00
Number of symbols in /Mol/                 I                0
Force Field                                I                0
Atom Types                                 C   N=           5
                                                            
Int Atom Types                             I   N=           5
           0           0           0           0           0
MM charges                                 R   N=           5
  0.00000000E+00  0.00000000E+00  0.00000000E+00  0.00000000E+00  0.00000000E+00
Integer atomic weights                     I   N=           5
           1          28          35          35          35
Real atomic weights                        R   N=           5
  1.00782504E+00  2.79769284E+01  3.49688527E+01  3.49688527E+01  3.49688527E+01
Atom fragment info                         I   N=           5
           0           0           0           0           0
Atom residue num                           I   N=           5
           0           0           0           0           0
Nuclear spins                              I   N=           5
           1           0           3           3           3
Nuclear ZEff                               R   N=           5
 -1.00000000E+00 -1.22500000E+01 -1.42400000E+01 -1.42400000E+01 -1.42400000E+01
Nuclear ZNuc                               R   N=           5
  1.00000000E+00  1.40000000E+01  1.70000000E+01  1.70000000E+01  1.70000000E+01
Nuclear QMom                               R   N=           5
  0.00000000E+00  0.00000000E+00 -8.16500000E+00 -8.16500000E+00 -8.16500000E+00
Nuclear GFac                               R   N=           5
  2.79284600E+00  0.00000000E+00  8.21874000E-01  8.21874000E-01  8.21874000E-01
MicOpt                                     I   N=           5
          -1          -1          -1          -1          -1
Number of residues                         I                0
Number of secondary structures             I                0
Number of contracted shells                I               22
Number of primitive shells                 I               72
Pure/Cartesian d shells                    I                1
Pure/Cartesian f shells                    I                0
Highest angular momentum                   I                2
Largest degree of contraction              I                6
Shell types                                I   N=          22
           0           0           0          -1          -1          -1
           2           0          -1          -1          -1           2
           0          -1          -1          -1           2           0
          -1          -1          -1           2
Number of primitives per shell             I   N=          22
           3           1           6           6           3           1
           1           6           6           3           1           1
           6           6           3           1           1           6
           6           3           1           1
Shell to atom map                          I   N=          22
           1           1           2           2           2           2
           2           3           3           3           3           3
           4           4           4           4           4           5
           5           5           5           5
Primitive exponents                        R   N=          72
  1.87311370E+01  2.82539436E+00  6.40121692E-01  1.61277759E-01  1.61159000E+04
  2.42558000E+03  5.53867000E+02  1.56340000E+02  5.00683000E+01  1.70178000E+01
  2.92718000E+02  6.98731000E+01  2.23363000E+01  8.15039000E+00  3.13458000E+00
  1.22543000E+00  1.72738000E+00  5.72922000E-01  2.22192000E-01  7.78369000E-02
  4.50000000E-01  2.51801000E+04  3.78035000E+03  8.60474000E+02  2.42145000E+02
  7.73349000E+01  2.62470000E+01  4.91765000E+02  1.16984000E+02  3.74153000E+01
  1.37834000E+01  5.45215000E+00  2.22588000E+00  3.18649000E+00  1.14427000E+00
  4.20377000E-01  1.42657000E-01  7.50000000E-01  2.51801000E+04  3.78035000E+03
  8.60474000E+02  2.42145000E+02  7.73349000E+01  2.62470000E+01  4.91765000E+02
  1.16984000E+02  3.74153000E+01  1.37834000E+01  5.45215000E+00  2.22588000E+00
  3.18649000E+00  1.14427000E+00  4.20377000E-01  1.42657000E-01  7.50000000E-01
  2.51801000E+04  3.78035000E+03  8.60474000E+02  2.42145000E+02  7.73349000E+01
  2.62470000E+01  4.91765000E+02  1.16984000E+02  3.74153000E+01  1.37834000E+01
  5.45215000E+00  2.22588000E+00  3.18649000E+00  1.14427000E+00  4.20377000E-01
  1.42657000E-01  7.50000000E-01
Contraction coefficients                   R   N=          72
  3.34946043E-02  2.34726953E-01  8.13757326E-01  1.00000000E+00  1.95948022E-03
  1.49288016E-02  7.28478080E-02  2.46130027E-01  4.85914053E-01  3.25002036E-01
 -2.78094141E-03 -3.57146182E-02 -1.14985058E-01  9.35634476E-02  6.03017307E-01
  4.18959213E-01 -2.44631004E-01  4.31573772E-03  1.09818451E+00  1.00000000E+00
  1.00000000E+00  1.83295985E-03  1.40341988E-02  6.90973943E-02  2.37451980E-01
  4.83033960E-01  3.39855972E-01 -2.29739142E-03 -3.07137189E-02 -1.12528069E-01
  4.50163278E-02  5.89353363E-01  4.65206287E-01 -2.51828028E-01  6.15892514E-02
  1.06018433E+00  1.00000000E+00  1.00000000E+00  1.83295985E-03  1.40341988E-02
  6.90973943E-02  2.37451980E-01  4.83033960E-01  3.39855972E-01 -2.29739142E-03
 -3.07137189E-02 -1.12528069E-01  4.50163278E-02  5.89353363E-01  4.65206287E-01
 -2.51828028E-01  6.15892514E-02  1.06018433E+00  1.00000000E+00  1.00000000E+00
  1.83295985E-03  1.40341988E-02  6.90973943E-02  2.37451980E-01  4.83033960E-01
  3.39855972E-01 -2.29739142E-03 -3.07137189E-02 -1.12528069E-01  4.50163278E-02
  5.89353363E-01  4.65206287E-01 -2.51828028E-01  6.15892514E-02  1.06018433E+00
  1.00000000E+00  1.00000000E+00
P(S=P) Contraction coefficients            R   N=          72
  0.00000000E+00  0.00000000E+00  0.00000000E+00  0.00000000E+00  0.00000000E+00
  0.00000000E+00  0.00000000E+00  0.00000000E+00  0.00000000E+00  0.00000000E+00
  4.43826452E-03  3.26679333E-02  1.34721137E-01  3.28678335E-01  4.49640458E-01
  2.61372266E-01 -1.77951061E-02  2.53539086E-01  8.00669272E-01  1.00000000E+00
  0.00000000E+00  0.00000000E+00  0.00000000E+00  0.00000000E+00  0.00000000E+00
  0.00000000E+00  0.00000000E+00  3.98940088E-03  3.03177067E-02  1.29880029E-01
  3.27951072E-01  4.53527100E-01  2.52154056E-01 -1.42993147E-02  3.23572333E-01
  7.43507765E-01  1.00000000E+00  0.00000000E+00  0.00000000E+00  0.00000000E+00
  0.00000000E+00  0.00000000E+00  0.00000000E+00  0.00000000E+00  3.98940088E-03
  3.03177067E-02  1.29880029E-01  3.27951072E-01  4.53527100E-01  2.52154056E-01
 -1.42993147E-02  3.23572333E-01  7.43507765E-01  1.00000000E+00  0.00000000E+00
  0.00000000E+00  0.00000000E+00  0.00000000E+00  0.00000000E+00  0.00000000E+00
  0.00000000E+00  3.98940088E-03  3.03177067E-02  1.29880029E-01  3.27951072E-01
  4.53527100E-01  2.52154056E-01 -1.42993147E-02  3.23572333E-01  7.43507765E-01
  1.00000000E+00  0.00000000E+00
Coordinates of each shell                  R   N=          66
  0.00000000E+00  0.00000000E+00  0.00000000E+00  0.00000000E+00  0.00000000E+00
  0.00000000E+00  0.00000000E+00  0.00000000E+00  2.76570867E+00  0.00000000E+00
  0.00000000E+00  2.76570867E+00  0.00000000E+00  0.00000000E+00  2.76570867E+00
  0.00000000E+00  0.00000000E+00  2.76570867E+00  0.00000000E+00  0.00000000E+00
  2.76570867E+00  1.81345678E+00 -3.15274348E+00  4.04800123E+00  1.81345678E+00
 -3.15274348E+00  4.04800123E+00  1.81345678E+00 -3.15274348E+00  4.04800123E+00
  1.81345678E+00 -3.15274348E+00  4.04800123E+00  1.81345678E+00 -3.15274348E+00
  4.04800123E+00  1.82524867E+00  3.14592157E+00  4.04800123E+00  1.82524867E+00
  3.14592157E+00  4.04800123E+00  1.82524867E+00  3.14592157E+00  4.04800123E+00
  1.82524867E+00  3.14592157E+00  4.04800123E+00  1.82524867E+00  3.14592157E+00
  4.04800123E+00 -3.63740154E+00  6.80301405E-03  4.04654614E+00 -3.63740154E+00
  6.80301405E-03  4.04654614E+00 -3.63740154E+00  6.80301405E-03  4.04654614E+00
 -3.63740154E+00  6.80301405E-03  4.04654614E+00 -3.63740154E+00  6.80301405E-03
  4.04654614E+00
Num ILSW                                   I              100
ILSW                                       I   N=         100
           0           1           0           0           2           0
           0           0           0           0         402          -1
           5           0           0           0           0           0
           0           0           1           0           0           0
           1           1           0           0           0           0
           0           0      100000           0          -1           0
           0           0           0           0           0           0
           0           0           0           1           0           0
           0 -2000000000           1           0           0           0
           0           0           4          52           0           0
           0           0           5           0           0           0
           0           0           0           0           0           1
           0           0           0           0           0           0
           0           0           0           0           0           0
           0           0           0           0           0           0
           0           0           0           0           0           0
           0           0           0           0
Num RLSW                                   I               52
RLSW                                       R   N=          52
  8.00000000E-01  7.20000000E-01  1.00000000E+00  8.10000000E-01  2.00000000E-01
  0.00000000E+00  0.00000000E+00  1.00000000E+00  0.00000000E+00  0.00000000E+00
  0.00000000E+00  0.00000000E+00  1.00000000E+00  0.00000000E+00  0.00000000E+00
  0.00000000E+00  0.00000000E+00  1.00000000E+00  0.00000000E+00  0.00000000E+00
  0.00000000E+00  0.00000000E+00  1.00000000E+00  0.00000000E+00  0.00000000E+00
  0.00000000E+00  0.00000000E+00  1.00000000E+00  0.00000000E+00  0.00000000E+00
  0.00000000E+00  0.00000000E+00  1.00000000E+00  0.00000000E+00  0.00000000E+00
  0.00000000E+00  0.00000000E+00  0.00000000E+00  1.00000000E+00  1.00000000E+00
  0.00000000E+00  1.00000000E+00  0.00000000E+00  0.00000000E+00  0.00000000E+00
  0.00000000E+00  0.00000000E+00  0.00000000E+00  0.00000000E+00  0.00000000E+00
  0.00000000E+00  0.00000000E+00
MxBond                                     I                4
NBond                                      I   N=           5
           1           4           1           1           1
IBond                                      I   N=          20
           2           0           0           0           1           3
           4           5           2           0           0           0
           2           0           0           0           2           0
           0           0
RBond                                      R   N=          20
  1.00000000E+00  0.00000000E+00  0.00000000E+00  0.00000000E+00  1.00000000E+00
  1.00000000E+00  1.00000000E+00  1.00000000E+00  1.00000000E+00  0.00000000E+00
  0.00000000E+00  0.00000000E+00  1.00000000E+00  0.00000000E+00  0.00000000E+00
  0.00000000E+00  1.00000000E+00  0.00000000E+00  0.00000000E+00  0.00000000E+00
Virial Ratio                               R      2.003067716459998E+00
SCF Energy                                 R     -1.670828158583061E+03
Total Energy                               R     -1.670828158583061E+03
RMS Density                                R      5.520880046172214E-09
Job Status                                 I                1
Nuclear derivative order                   I                0
External E-field                           R   N=          35
  0.00000000E+00  0.00000000E+00  0.00000000E+00  0.00000000E+00  0.00000000E+00
  0.00000000E+00  0.00000000E+00  0.00000000E+00  0.00000000E+00  0.00000000E+00
  0.00000000E+00  0.00000000E+00  0.00000000E+00  0.00000000E+00  0.00000000E+00
  0.00000000E+00  0.00000000E+00  0.00000000E+00  0.00000000E+00  0.00000000E+00
  0.00000000E+00  0.00000000E+00  0.00000000E+00  0.00000000E+00  0.00000000E+00
  0.00000000E+00  0.00000000E+00  0.00000000E+00  0.00000000E+00  0.00000000E+00
  0.00000000E+00  0.00000000E+00  0.00000000E+00  0.00000000E+00  0.00000000E+00
IOpCl                                      I                0
IROHF                                      I                0
Alpha Orbital Energies                     R   N=          78
 -1.01565236E+02 -1.01565202E+02 -1.01565201E+02 -6.62566079E+01 -9.48494183E+00
 -9.48490753E+00 -9.48489895E+00 -7.24638504E+00 -7.24635341E+00 -7.24634003E+00
 -7.23989250E+00 -7.23985762E+00 -7.23985433E+00 -7.23983071E+00 -7.23979852E+00
 -7.23979164E+00 -5.39796331E+00 -3.75787188E+00 -3.75787065E+00 -3.75464529E+00
 -8.83889741E-01 -8.46846003E-01 -8.46800626E-01 -5.63194950E-01 -4.43172660E-01
 -4.41847889E-01 -4.41808340E-01 -3.69072380E-01 -3.69057514E-01 -3.49073192E-01
 -3.49035650E-01 -3.46973936E-01 -3.34898126E-01 -1.74818727E-02  3.40136914E-03
  3.49192239E-03  8.13452829E-02  1.44815315E-01  1.90622593E-01  1.93522089E-01
  1.93538294E-01  3.51371809E-01  3.51373719E-01  3.83827358E-01  3.83864881E-01
  3.91368587E-01  4.70505716E-01  4.74512181E-01  4.74525595E-01  4.95299283E-01
  4.95360718E-01  5.13007008E-01  5.59245741E-01  5.59264479E-01  6.60784146E-01
  6.80956315E-01  6.80994988E-01  6.82890710E-01  8.28758455E-01  8.40014820E-01
  8.41915156E-01  8.41930454E-01  8.45190969E-01  8.51576174E-01  8.51602107E-01
  8.87055695E-01  8.87115370E-01  9.31287691E-01  9.91694617E-01  9.91737908E-01
  1.05605082E+00  1.24332925E+00  1.28450960E+00  1.28456615E+00  2.84446083E+00
  4.23007775E+00  4.23014165E+00  4.26770086E+00
Alpha MO coefficients                      R   N=        6084
  2.63649175E-06  2.73616396E-05  3.35244178E-06 -1.39424826E-05  1.00480711E-06
 -2.04067240E-09 -7.70239745E-07  1.72615606E-04 -7.97352295E-05  1.63102813E-07
  3.28266434E-05 -2.94969781E-04  1.47753757E-04 -3.02362020E-07 -4.94098826E-05
  4.74395219E-06 -5.50861018E-05 -5.07599059E-05 -1.23166221E-07 -2.47945664E-05
  5.07037546E-08  1.03339900E-02  1.59165338E-04 -1.04790583E-06  2.13317010E-07
  2.20228631E-07 -2.22164259E-04  9.88472039E-07  1.72574096E-06 -1.27413485E-06
  3.15297281E-05 -4.94752750E-06  3.19563304E-06 -1.06808612E-06  7.55764914E-05
  8.66766542E-05  8.67144805E-05  3.22551234E-06  2.74987467E-06 -1.10724110E-06
  1.05344591E-02  1.62216626E-04 -1.05348096E-06 -2.17304085E-07  2.16832850E-07
 -2.26400995E-04  9.88490892E-07 -1.71899063E-06 -1.26956101E-06  3.18900680E-05
 -4.96964304E-06 -3.19317874E-06 -1.07513079E-06  7.70710398E-05  8.82126486E-05
  8.82302333E-05 -3.18035828E-06  2.75324410E-06  1.09485530E-06  9.95886917E-01
  1.51599779E-02  4.62805169E-05 -8.63627043E-08 -1.64900978E-05 -2.10504059E-02
 -5.99546115E-05  1.11781107E-07  2.14177347E-05  1.80289299E-03  9.86778297E-05
 -1.84015955E-07 -3.60944674E-05  7.51941380E-03  7.54081033E-03  7.53835719E-03
  4.47529251E-08  8.46780314E-06 -1.62105716E-08  3.37998766E-06  3.48642406E-05
  4.26817332E-06 -1.77558879E-05 -6.90712307E-07 -4.62105065E-07 -9.88182031E-07
  2.19679488E-04  5.41382947E-05  3.64059338E-05  4.18467015E-05 -3.75533683E-04
 -1.00254235E-04 -6.74409919E-05 -6.29224565E-05 -5.22249447E-05 -1.17956774E-05
 -6.45862437E-05  1.59140635E-05  1.68651426E-05  1.13360415E-05  3.93611644E-01
  5.99343436E-03 -8.56786883E-06  1.64099356E-05 -6.18053030E-06 -8.32317240E-03
  9.70094817E-06 -2.01220664E-05  7.15461263E-06  7.23917017E-04 -1.91396190E-05
  3.82751416E-05 -1.49267395E-05  2.98578987E-03  2.97182799E-03  2.98696727E-03
  3.88430531E-07 -2.09484105E-06  1.78160002E-07  9.14816288E-01  1.39265405E-02
 -2.10912247E-05 -3.69998905E-05 -1.50295936E-05 -1.93380975E-02  2.67315584E-05
  4.74897559E-05  1.91640049E-05  1.66063762E-03 -4.52827536E-05 -8.02243594E-05
 -3.34516370E-05  6.92521420E-03  6.91116367E-03  6.92773792E-03 -8.20204557E-06
 -4.12637783E-06 -5.60251916E-06 -1.37616270E-02 -2.07074721E-04 -3.44465693E-07
  4.24546463E-07  7.36724588E-07  2.86027963E-04  2.94739076E-06 -9.12570890E-07
 -2.23789786E-06 -8.22043939E-06  4.11636831E-06  1.41220776E-06 -4.22604710E-07
 -9.93946512E-05 -1.00933593E-04 -9.31251849E-05 -3.79132376E-06 -3.27296025E-06
 -9.64869834E-07  1.34673239E-06  1.38909550E-05  1.70050908E-06 -7.07429141E-06
 -2.72592689E-07  1.16470339E-06 -3.93826192E-07  8.75219078E-05  2.13521382E-05
 -9.16978944E-05  1.66724899E-05 -1.49620009E-04 -3.95399273E-05  1.69866338E-04
 -2.50692654E-05 -2.09487601E-05 -4.55590313E-06 -2.57315511E-05 -3.97010636E-05
  6.65177699E-06 -2.85534792E-05  9.14861527E-01  1.39257945E-02 -2.14259044E-05
  3.65983771E-05 -1.53324509E-05 -1.93361982E-02  2.83757347E-05 -4.79652651E-05
  2.03168474E-05  1.65078504E-03 -4.52111452E-05  7.65055124E-05 -3.28893922E-05
  6.91916320E-03  6.91332068E-03  6.92151497E-03  1.14313166E-05 -3.75822132E-06
  7.98286234E-06 -3.93711462E-01 -5.99161895E-03  9.72489653E-06  1.52575359E-05
  6.88455544E-06  8.31864546E-03 -1.40139217E-05 -2.09440751E-05 -9.83461151E-06
 -7.01007778E-04  1.97793468E-05  2.91649668E-05  1.36199473E-05 -2.97151351E-03
 -2.97697121E-03 -2.97246085E-03  8.00969806E-06  1.31077068E-06  5.66978351E-06
 -5.32868963E-03 -8.01554219E-05 -1.32413401E-07 -1.06402883E-06  2.90905503E-07
  1.10700100E-04  1.16968580E-06  2.27508224E-06 -8.88046120E-07 -2.99759245E-06
  1.64709598E-06 -3.56757420E-06 -1.74033457E-07 -3.84012627E-05 -3.90824104E-05
 -3.59369369E-05  9.50904029E-06 -1.29704531E-06  2.44027217E-06  7.66337863E-05
  5.36226221E-04  9.96587327E-01  1.29409337E-02 -1.50936007E-09 -3.94023000E-12
  6.98246472E-05 -2.78527053E-02 -2.06896585E-08 -8.03805238E-10 -2.04874725E-04
  3.05780904E-03  1.40925674E-07 -1.55910916E-09  1.79553818E-04  9.60955687E-03
  9.60979640E-03  9.68026292E-03 -9.13420998E-11 -8.89654516E-08  1.30439870E-10
  4.11166717E-06 -6.56312614E-06 -2.44822206E-06  4.24162435E-06 -7.30357715E-06
  1.80303686E-04 -4.91818268E-05  8.55792871E-05 -5.89302180E-06  3.70959453E-04
 -2.74345533E-04  4.76748222E-04 -2.70527964E-04 -5.78802230E-05 -5.20162217E-05
 -5.44653527E-05 -5.83669136E-06  3.83620642E-06 -6.67433831E-06  4.11170631E-06
 -6.56292246E-06 -2.46433710E-06 -4.23278420E-06 -7.30375181E-06  1.80307054E-04
 -4.95009832E-05 -8.53929884E-05 -5.89237645E-06  3.70965299E-04 -2.76131668E-04
 -4.75720377E-04 -2.70530027E-04 -5.78434616E-05 -5.20573063E-05 -5.44661229E-05
  5.85996342E-06  3.86041231E-06  6.65855903E-06  4.11153102E-06 -6.57342388E-06
  4.91554289E-06 -9.16239711E-09 -7.30287015E-06  1.80344236E-04  9.86339093E-05
 -1.84631457E-07 -5.84946931E-06  3.71353440E-04  5.50364742E-04 -1.02885394E-06
 -2.70356570E-04 -4.92184313E-05 -6.08221979E-05 -5.45260664E-05 -2.50378411E-08
 -7.66555931E-06  1.43149880E-08  5.40705733E-05 -1.92963575E-03 -2.26572733E-05
 -2.22221313E-04 -9.62438659E-05  4.47551832E-07  3.44809189E-05 -1.05839790E-03
  1.27314050E-04 -5.88379814E-07 -4.20482356E-06  1.39737889E-02 -3.02781692E-03
  1.40836803E-05  2.85567200E-03 -5.51000622E-04 -1.15333776E-04 -3.00577865E-04
  2.40262760E-07  1.26252837E-04 -5.87055358E-07 -4.25832657E-02  1.53114319E-01
 -3.07186155E-04  5.41418853E-04 -2.37937372E-04  1.17367634E-02 -1.09890070E-04
  1.40131304E-04  2.99351393E-05 -6.08256457E-03  1.28718067E-03 -1.53912642E-03
  9.46934763E-05 -2.25482153E-03 -2.30773093E-03 -2.25497969E-03  7.22562411E-05
 -3.01275347E-05 -3.61690691E-05 -4.33393229E-02  1.55830004E-01 -3.14650307E-04
 -5.49655246E-04 -2.41790659E-04  1.19367827E-02 -1.12364226E-04 -1.42916816E-04
  2.84032876E-05 -6.12958072E-03  1.29782901E-03  1.54049300E-03  9.84171479E-05
 -2.29835984E-03 -2.34972450E-03 -2.29812704E-03 -7.19343544E-05 -2.99403224E-05
  3.66544577E-05 -2.78047903E-01  9.98880839E-01  4.00283035E-03 -7.49425662E-06
 -1.43549794E-03  7.40299087E-02  1.34257879E-03 -2.42952938E-06 -4.47064250E-04
 -2.07250943E-02 -4.40981591E-03  7.12792278E-06  1.25448007E-03 -1.54920293E-02
 -1.57079399E-02 -1.56930926E-02 -4.97883702E-07 -1.24516068E-04  3.75076000E-07
  4.94325057E-05 -1.76051869E-03 -2.06802216E-05 -2.02773948E-04  1.05340550E-04
  5.92896635E-06  3.15177870E-05 -9.65918240E-04 -1.39470078E-04 -7.82717681E-06
 -3.92080190E-06  1.27480204E-02  3.31285767E-03  1.86498948E-04  2.60617120E-03
 -6.54635066E-05 -5.42278474E-04 -2.74489722E-04 -1.70620208E-05 -1.37867600E-04
 -7.77383052E-06 -1.87778888E-01  6.74629020E-01 -1.35315255E-03  2.34263848E-03
 -9.75922745E-04  5.01071734E-02 -4.23427799E-04  7.92455268E-04 -2.74888462E-04
 -1.48090902E-02  1.32536774E-03 -3.09147269E-03  8.21545214E-04 -1.05221226E-02
 -1.04887659E-02 -1.05570870E-02 -5.48355146E-05  8.49346352E-05 -4.72876000E-05
 -2.05067028E-01  7.36726363E-01 -1.48625568E-03 -2.55227580E-03 -1.06401774E-03
  5.46808035E-02 -4.70942021E-04 -8.63992620E-04 -3.09947707E-04 -1.58840105E-02
  1.44866696E-03  3.22819111E-03  9.06801237E-04 -1.15065719E-02 -1.14601018E-02
 -1.15437216E-02  6.75286462E-05  8.62883916E-05  5.54823671E-05  6.07462258E-02
 -2.18049263E-01 -8.61718432E-04  1.33182186E-06  2.89893866E-04 -1.56406321E-02
 -3.32328113E-04  2.47258188E-06  2.29367446E-04  6.43637363E-04 -7.73961265E-04
 -2.41530540E-05 -4.05738740E-04  3.41664200E-03  3.68793951E-03  3.62690429E-03
 -1.39402421E-07  3.08103751E-05  3.19560908E-06  2.22795132E-06 -7.93170770E-05
 -9.31687116E-07 -9.13645615E-06  4.08013297E-06 -1.42513362E-04  1.41968630E-06
 -4.35202931E-05 -5.40079244E-06  1.88141220E-04 -1.75086483E-07  5.74298333E-04
  1.28311270E-04 -4.48264396E-03  1.17398900E-04 -2.63790942E-06 -2.47373687E-05
 -1.23654908E-05  3.72814913E-04 -5.33717825E-06  1.86785840E-04 -2.09596919E-01
  7.52858618E-01 -1.49811061E-03  2.60909397E-03 -1.06887391E-03  5.54687416E-02
 -5.34279236E-04  8.88338945E-04 -4.20254212E-04 -1.31728637E-02  1.35507306E-03
 -1.79176446E-03  1.02887509E-03 -1.19326561E-02 -1.17683389E-02 -1.19545124E-02
 -1.47737076E-04  1.69316277E-05 -1.01333489E-04  1.92546957E-01 -6.91603703E-01
  1.38426256E-03  2.39120340E-03  9.80277269E-04 -5.09194153E-02  4.98609578E-04
  8.14661859E-04  3.95223622E-04  1.18304343E-02 -1.23715320E-03 -1.50943248E-03
 -9.54212074E-04  1.09761368E-02  1.08169469E-02  1.09958398E-02 -1.43450146E-04
 -1.00557914E-05 -9.67292923E-05  2.08872788E-03 -7.49596177E-03 -2.95074817E-05
  6.53658843E-06  9.76386578E-06 -5.33208801E-04 -1.18434713E-05 -4.30026714E-05
  9.01890495E-06 -1.12966479E-05 -4.04455317E-05  5.95498217E-04 -1.50801739E-05
  1.17810351E-04  1.28957602E-04  1.26415584E-04  1.68835429E-05  9.48750979E-07
 -7.56749412E-05 -1.68473669E-04 -2.68329321E-04  1.05930203E-05  1.29201374E-04
 -3.62415662E-04 -2.05921069E-07  8.76315495E-05  2.18329850E-03  1.08151115E-03
  6.15979970E-07 -3.00029057E-04  2.20913312E-03 -1.49401841E-03 -8.47505165E-07
  3.38927180E-04 -2.48392063E-03  1.85366599E-04 -4.82279977E-04  9.52667550E-06
  1.11413200E-03  6.36000074E-07 -1.80663781E-04  6.17292289E-04  6.18929113E-02
 -1.07540159E-01  4.06971089E-02 -3.41615504E-05  2.04113253E-03 -3.41171533E-03
  1.27379811E-03  1.87899992E-04 -7.60674363E-04  9.75507876E-04 -3.14199512E-04
 -6.12582365E-05 -2.85617355E-04 -1.39565253E-04  7.72138621E-05 -7.92298806E-05
  7.06808687E-05 -1.84948367E-04  6.32385999E-04  6.37795722E-02  1.09864488E-01
  4.16672513E-02 -3.56751074E-05  2.09934361E-03  3.48271140E-03  1.30352279E-03
  1.96375964E-04 -7.78219375E-04 -9.97566823E-04 -3.23236043E-04 -6.33908447E-05
 -2.88360294E-04 -1.40730460E-04 -8.02363826E-05 -8.02173939E-05 -7.18157823E-05
  1.33851580E-03 -4.73457714E-03  9.24424854E-01 -1.72825269E-03 -3.02767556E-01
  5.02499896E-04  2.82430655E-02 -5.26131142E-05 -9.24976232E-03 -2.81759578E-03
 -8.89075037E-03  1.61371269E-05  2.88529937E-03  1.26654766E-03  1.14888923E-04
  2.72911552E-04 -2.69222039E-06 -4.66397533E-04  7.77953718E-07  1.05250390E-05
  1.68415636E-05 -6.62344184E-07 -8.07955567E-06 -4.43232202E-06 -3.97543901E-04
 -5.48487818E-06 -1.36486490E-04  1.32268093E-05  1.18560332E-03  1.87762514E-05
 -1.37966976E-04 -1.82298754E-05 -1.64081774E-03 -2.10716773E-05  6.37516125E-05
  7.98892546E-05  3.01695829E-05  1.69126240E-03  1.36479506E-05  1.22297627E-03
  9.38559478E-04 -3.30508679E-03 -3.23031866E-01  5.61342803E-01 -2.12516875E-01
  3.30034996E-04 -9.89338253E-03  1.72789766E-02 -6.51294927E-03 -1.84815438E-03
  3.02126603E-03 -5.47357621E-03  1.97582348E-03  3.58383083E-04  7.17962419E-04
  2.60991583E-04 -4.51019144E-04  1.57290751E-04 -3.16494545E-04 -9.89414360E-04
  3.48664901E-03  3.42787467E-01  5.90543729E-01  2.24058805E-01 -3.51689672E-04
  1.04915240E-02  1.81581403E-02  6.86322556E-03  1.96975465E-03 -3.21334230E-03
 -5.75079510E-03 -2.09149760E-03 -3.70794431E-04 -7.45696245E-04 -2.63475008E-04
 -4.70942659E-04 -1.66505969E-04 -3.28393595E-04 -9.95575891E-06  3.62735670E-05
 -6.90863529E-03  2.17149809E-05  2.26371463E-03 -5.36607230E-06 -2.01968670E-04
  8.58749631E-05  6.76895371E-05  3.02464126E-05  6.44758150E-05 -2.18446476E-04
 -2.51787383E-05 -4.05209078E-06  1.57202366E-06  2.95777745E-06 -9.24533758E-05
  1.55343695E-06 -4.24150750E-05 -3.71220953E-04 -5.94390990E-04  2.33666727E-05
  2.84934806E-04  1.64284799E-04 -1.11759845E-05  1.93460859E-04  4.81410396E-03
 -4.90010529E-04  3.33178908E-05 -6.62088494E-04  4.86728792E-03  6.75907450E-04
 -4.61326735E-05  7.43078642E-04 -1.92889644E-03 -3.13731266E-03 -1.06413169E-03
  4.36169256E-05 -5.05702961E-04  3.43778834E-05  9.71200326E-04 -3.46384355E-03
 -3.34944863E-01  5.82036648E-01 -2.20389373E-01  4.08285528E-04 -1.01386594E-02
  1.75596479E-02 -6.69323337E-03 -2.29202914E-03  3.26565641E-03 -5.52323965E-03
  2.19700711E-03  1.86154512E-04  6.06214694E-04  6.39838898E-05 -3.53271342E-04
  1.56839784E-04 -2.43496183E-04  9.18489864E-04 -3.27816032E-03 -3.18861537E-01
 -5.49317503E-01 -2.08453165E-01  3.89640944E-04 -9.64526960E-03 -1.65536898E-02
 -6.32752555E-03 -2.18762953E-03  3.11529931E-03  5.20438510E-03  2.08580005E-03
  1.68436818E-04  5.63986369E-04  4.96435417E-05  3.29835996E-04  1.48869046E-04
  2.25296997E-04  2.55347765E-04 -9.41918305E-04  1.77553608E-01 -3.31709123E-04
 -5.81886557E-02  1.55422305E-04  5.09749774E-03 -7.19250751E-06 -1.72399194E-03
 -8.77266529E-04 -1.65055838E-03 -2.88358228E-06  6.86408527E-04  3.43185064E-05
 -5.58642780E-05 -1.30376771E-04 -2.72318934E-06 -2.18201957E-05 -1.11874124E-06
  9.81267513E-08 -1.02466621E-06  3.99034532E-09  1.83655606E-08  3.44845855E-07
  9.53318216E-05 -2.82262599E-08  2.47110107E-07 -1.58721907E-06 -4.38410560E-04
  8.07373620E-08 -1.57752819E-07  1.09310180E-05  2.96953253E-03 -1.83126052E-06
  2.35294629E-07 -4.25488341E-07  8.95159252E-08  1.80006913E-04  2.63104602E-07
  6.58007246E-05 -5.03777827E-06 -4.77710480E-06 -8.31480026E-02 -2.85008682E-02
  5.11755977E-02 -1.21787717E-04 -2.58028335E-03 -7.94632510E-04  1.62811593E-03
  1.15313676E-03  9.02822481E-04  2.96429913E-04 -9.76462138E-04 -3.77894360E-05
 -7.03817346E-06  5.87827387E-05  3.12634103E-05  2.67889458E-05  2.11753852E-06
  5.06195619E-06  4.71428785E-06  8.45887760E-02 -2.95134310E-02 -5.16958135E-02
  1.21960003E-04  2.62226353E-03 -8.24409567E-04 -1.64356651E-03 -1.15481446E-03
 -9.15922760E-04  3.05878652E-04  9.82491771E-04  3.76910544E-05  7.16387640E-06
 -5.88697113E-05  3.09477233E-05 -2.68630156E-05  2.30197844E-06 -1.19819529E-08
 -2.69527539E-08  1.86940327E-03  9.80291776E-01  1.12186131E-04 -3.14298608E-07
  5.45218263E-05  2.84857847E-02  3.47517518E-06  2.89161274E-06 -1.67174067E-05
 -8.86038078E-03 -1.75238682E-06  5.81460732E-07 -7.00763707E-07  7.17373173E-08
  2.04914997E-04 -1.56575678E-07 -8.51242224E-05 -4.79248747E-06  5.00204583E-05
 -1.93444261E-07 -8.78350060E-07  1.39309007E-05 -8.73353093E-05  1.37907162E-06
 -1.19326886E-05 -6.43247799E-05  4.02413307E-04 -3.95689570E-06  7.30540863E-06
  4.52938052E-04 -2.74799057E-03  8.92598222E-05 -1.69913866E-05  2.62170077E-05
 -4.36150071E-06 -1.61268938E-04  1.22207566E-05 -6.42770219E-05  5.99076559E-06
  3.36338502E-06 -5.23889846E-01 -3.28415173E-01 -7.12046983E-02  1.27574522E-04
 -1.52244378E-02 -9.66835159E-03 -2.20301136E-03 -1.20024995E-03  4.79099969E-03