SiMe3_new_1 0.0                                                         
SP        RB3LYP                                                      6-31G(d)            
Number of atoms                            I               17
Info1-9                                    I   N=           9
          26          26           0           0           0         110
           1          18        -502
Full Title                                 C   N=           2
SiMe3_new_1 0.0         
Route                                      C   N=           2
# nosymm b3lyp/6-31G*   
Charge                                     I                0
Multiplicity                               I                1
Number of electrons                        I               50
Number of alpha electrons                  I               25
Number of beta electrons                   I               25
Number of basis functions                  I              103
Number of independent functions            I              103
Number of point charges in /Mol/           I                0
Number of translation vectors              I                0
Atomic numbers                             I   N=          17
           6           1           6           1           1           1
           6           1           1           1           6           1
           1           1          14           1           1
Nuclear charges                            R   N=          17
  6.00000000E+00  1.00000000E+00  6.00000000E+00  1.00000000E+00  1.00000000E+00
  1.00000000E+00  6.00000000E+00  1.00000000E+00  1.00000000E+00  1.00000000E+00
  6.00000000E+00  1.00000000E+00  1.00000000E+00  1.00000000E+00  1.40000000E+01
  1.00000000E+00  1.00000000E+00
Current cartesian coordinates              R   N=          51
  0.00000000E+00  0.00000000E+00  0.00000000E+00 -1.71000429E+00  9.00202390E-01
 -7.52651157E-01 -2.85186085E+00 -1.79675137E+00  4.76639711E+00 -2.90845030E+00
 -1.83044502E+00  6.83923747E+00 -4.61687282E+00 -9.31646034E-01  4.10503590E+00
 -2.83216272E+00 -3.76312985E+00  4.10767542E+00  2.98186620E+00 -1.57116460E+00
  4.76686849E+00  3.11398597E+00 -3.53308650E+00  4.10774622E+00  4.67505852E+00
 -5.72387366E-01  4.10613550E+00  3.04034897E+00 -1.60090150E+00  6.83972893E+00
 -1.30324528E-01  3.36809056E+00  4.76644419E+00  1.50307760E+00  4.46321903E+00
  4.10784451E+00 -1.84152628E+00  4.33515184E+00  4.10501051E+00 -1.34508759E-01
  3.43374670E+00  6.83930255E+00  0.00000000E+00  0.00000000E+00  3.57498929E+00
  7.52921123E-02 -1.93089789E+00 -7.52940436E-01  1.63443588E+00  1.03081446E+00
 -7.52981141E-01
Number of symbols in /Mol/                 I                0
Force Field                                I                0
Atom Types                                 C   N=          17
                                                            
                                                            
                                                            
                        
Int Atom Types                             I   N=          17
           0           0           0           0           0           0
           0           0           0           0           0           0
           0           0           0           0           0
MM charges                                 R   N=          17
  0.00000000E+00  0.00000000E+00  0.00000000E+00  0.00000000E+00  0.00000000E+00
  0.00000000E+00  0.00000000E+00  0.00000000E+00  0.00000000E+00  0.00000000E+00
  0.00000000E+00  0.00000000E+00  0.00000000E+00  0.00000000E+00  0.00000000E+00
  0.00000000E+00  0.00000000E+00
Integer atomic weights                     I   N=          17
          12           1          12           1           1           1
          12           1           1           1          12           1
           1           1          28           1           1
Real atomic weights                        R   N=          17
  1.20000000E+01  1.00782504E+00  1.20000000E+01  1.00782504E+00  1.00782504E+00
  1.00782504E+00  1.20000000E+01  1.00782504E+00  1.00782504E+00  1.00782504E+00
  1.20000000E+01  1.00782504E+00  1.00782504E+00  1.00782504E+00  2.79769284E+01
  1.00782504E+00  1.00782504E+00
Atom fragment info                         I   N=          17
           0           0           0           0           0           0
           0           0           0           0           0           0
           0           0           0           0           0
Atom residue num                           I   N=          17
           0           0           0           0           0           0
           0           0           0           0           0           0
           0           0           0           0           0
Nuclear spins                              I   N=          17
           0           1           0           1           1           1
           0           1           1           1           0           1
           1           1           0           1           1
Nuclear ZEff                               R   N=          17
 -3.60000000E+00 -1.00000000E+00 -3.60000000E+00 -1.00000000E+00 -1.00000000E+00
 -1.00000000E+00 -3.60000000E+00 -1.00000000E+00 -1.00000000E+00 -1.00000000E+00
 -3.60000000E+00 -1.00000000E+00 -1.00000000E+00 -1.00000000E+00 -1.22500000E+01
 -1.00000000E+00 -1.00000000E+00
Nuclear ZNuc                               R   N=          17
  6.00000000E+00  1.00000000E+00  6.00000000E+00  1.00000000E+00  1.00000000E+00
  1.00000000E+00  6.00000000E+00  1.00000000E+00  1.00000000E+00  1.00000000E+00
  6.00000000E+00  1.00000000E+00  1.00000000E+00  1.00000000E+00  1.40000000E+01
  1.00000000E+00  1.00000000E+00
Nuclear QMom                               R   N=          17
  0.00000000E+00  0.00000000E+00  0.00000000E+00  0.00000000E+00  0.00000000E+00
  0.00000000E+00  0.00000000E+00  0.00000000E+00  0.00000000E+00  0.00000000E+00
  0.00000000E+00  0.00000000E+00  0.00000000E+00  0.00000000E+00  0.00000000E+00
  0.00000000E+00  0.00000000E+00
Nuclear GFac                               R   N=          17
  0.00000000E+00  2.79284600E+00  0.00000000E+00  2.79284600E+00  2.79284600E+00
  2.79284600E+00  0.00000000E+00  2.79284600E+00  2.79284600E+00  2.79284600E+00
  0.00000000E+00  2.79284600E+00  2.79284600E+00  2.79284600E+00  0.00000000E+00
  2.79284600E+00  2.79284600E+00
MicOpt                                     I   N=          17
          -1          -1          -1          -1          -1          -1
          -1          -1          -1          -1          -1          -1
          -1          -1          -1          -1          -1
Number of residues                         I                0
Number of secondary structures             I                0
Number of contracted shells                I               45
Number of primitive shells                 I              109
Pure/Cartesian d shells                    I                1
Pure/Cartesian f shells                    I                0
Highest angular momentum                   I                2
Largest degree of contraction              I                6
Shell types                                I   N=          45
           0          -1          -1           2           0           0
           0          -1          -1           2           0           0
           0           0           0           0           0          -1
          -1           2           0           0           0           0
           0           0           0          -1          -1           2
           0           0           0           0           0           0
           0          -1          -1          -1           2           0
           0           0           0
Number of primitives per shell             I   N=          45
           6           3           1           1           3           1
           6           3           1           1           3           1
           3           1           3           1           6           3
           1           1           3           1           3           1
           3           1           6           3           1           1
           3           1           3           1           3           1
           6           6           3           1           1           3
           1           3           1
Shell to atom map                          I   N=          45
           1           1           1           1           2           2
           3           3           3           3           4           4
           5           5           6           6           7           7
           7           7           8           8           9           9
          10          10          11          11          11          11
          12          12          13          13          14          14
          15          15          15          15          15          16
          16          17          17
Primitive exponents                        R   N=         109
  3.04752488E+03  4.57369518E+02  1.03948685E+02  2.92101553E+01  9.28666296E+00
  3.16392696E+00  7.86827235E+00  1.88128854E+00  5.44249258E-01  1.68714478E-01
  8.00000000E-01  1.87311370E+01  2.82539436E+00  6.40121692E-01  1.61277759E-01
  3.04752488E+03  4.57369518E+02  1.03948685E+02  2.92101553E+01  9.28666296E+00
  3.16392696E+00  7.86827235E+00  1.88128854E+00  5.44249258E-01  1.68714478E-01
  8.00000000E-01  1.87311370E+01  2.82539436E+00  6.40121692E-01  1.61277759E-01
  1.87311370E+01  2.82539436E+00  6.40121692E-01  1.61277759E-01  1.87311370E+01
  2.82539436E+00  6.40121692E-01  1.61277759E-01  3.04752488E+03  4.57369518E+02
  1.03948685E+02  2.92101553E+01  9.28666296E+00  3.16392696E+00  7.86827235E+00
  1.88128854E+00  5.44249258E-01  1.68714478E-01  8.00000000E-01  1.87311370E+01
  2.82539436E+00  6.40121692E-01  1.61277759E-01  1.87311370E+01  2.82539436E+00
  6.40121692E-01  1.61277759E-01  1.87311370E+01  2.82539436E+00  6.40121692E-01
  1.61277759E-01  3.04752488E+03  4.57369518E+02  1.03948685E+02  2.92101553E+01
  9.28666296E+00  3.16392696E+00  7.86827235E+00  1.88128854E+00  5.44249258E-01
  1.68714478E-01  8.00000000E-01  1.87311370E+01  2.82539436E+00  6.40121692E-01
  1.61277759E-01  1.87311370E+01  2.82539436E+00  6.40121692E-01  1.61277759E-01
  1.87311370E+01  2.82539436E+00  6.40121692E-01  1.61277759E-01  1.61159000E+04
  2.42558000E+03  5.53867000E+02  1.56340000E+02  5.00683000E+01  1.70178000E+01
  2.92718000E+02  6.98731000E+01  2.23363000E+01  8.15039000E+00  3.13458000E+00
  1.22543000E+00  1.72738000E+00  5.72922000E-01  2.22192000E-01  7.78369000E-02
  4.50000000E-01  1.87311370E+01  2.82539436E+00  6.40121692E-01  1.61277759E-01
  1.87311370E+01  2.82539436E+00  6.40121692E-01  1.61277759E-01
Contraction coefficients                   R   N=         109
  1.83473713E-03  1.40373228E-02  6.88426223E-02  2.32184443E-01  4.67941348E-01
  3.62311985E-01 -1.19332420E-01 -1.60854152E-01  1.14345644E+00  1.00000000E+00
  1.00000000E+00  3.34946043E-02  2.34726953E-01  8.13757326E-01  1.00000000E+00
  1.83473713E-03  1.40373228E-02  6.88426223E-02  2.32184443E-01  4.67941348E-01
  3.62311985E-01 -1.19332420E-01 -1.60854152E-01  1.14345644E+00  1.00000000E+00
  1.00000000E+00  3.34946043E-02  2.34726953E-01  8.13757326E-01  1.00000000E+00
  3.34946043E-02  2.34726953E-01  8.13757326E-01  1.00000000E+00  3.34946043E-02
  2.34726953E-01  8.13757326E-01  1.00000000E+00  1.83473713E-03  1.40373228E-02
  6.88426223E-02  2.32184443E-01  4.67941348E-01  3.62311985E-01 -1.19332420E-01
 -1.60854152E-01  1.14345644E+00  1.00000000E+00  1.00000000E+00  3.34946043E-02
  2.34726953E-01  8.13757326E-01  1.00000000E+00  3.34946043E-02  2.34726953E-01
  8.13757326E-01  1.00000000E+00  3.34946043E-02  2.34726953E-01  8.13757326E-01
  1.00000000E+00  1.83473713E-03  1.40373228E-02  6.88426223E-02  2.32184443E-01
  4.67941348E-01  3.62311985E-01 -1.19332420E-01 -1.60854152E-01  1.14345644E+00
  1.00000000E+00  1.00000000E+00  3.34946043E-02  2.34726953E-01  8.13757326E-01
  1.00000000E+00  3.34946043E-02  2.34726953E-01  8.13757326E-01  1.00000000E+00
  3.34946043E-02  2.34726953E-01  8.13757326E-01  1.00000000E+00  1.95948022E-03
  1.49288016E-02  7.28478080E-02  2.46130027E-01  4.85914053E-01  3.25002036E-01
 -2.78094141E-03 -3.57146182E-02 -1.14985058E-01  9.35634476E-02  6.03017307E-01
  4.18959213E-01 -2.44631004E-01  4.31573772E-03  1.09818451E+00  1.00000000E+00
  1.00000000E+00  3.34946043E-02  2.34726953E-01  8.13757326E-01  1.00000000E+00
  3.34946043E-02  2.34726953E-01  8.13757326E-01  1.00000000E+00
P(S=P) Contraction coefficients            R   N=         109
  0.00000000E+00  0.00000000E+00  0.00000000E+00  0.00000000E+00  0.00000000E+00
  0.00000000E+00  6.89990666E-02  3.16423961E-01  7.44308291E-01  1.00000000E+00
  0.00000000E+00  0.00000000E+00  0.00000000E+00  0.00000000E+00  0.00000000E+00
  0.00000000E+00  0.00000000E+00  0.00000000E+00  0.00000000E+00  0.00000000E+00
  0.00000000E+00  6.89990666E-02  3.16423961E-01  7.44308291E-01  1.00000000E+00
  0.00000000E+00  0.00000000E+00  0.00000000E+00  0.00000000E+00  0.00000000E+00
  0.00000000E+00  0.00000000E+00  0.00000000E+00  0.00000000E+00  0.00000000E+00
  0.00000000E+00  0.00000000E+00  0.00000000E+00  0.00000000E+00  0.00000000E+00
  0.00000000E+00  0.00000000E+00  0.00000000E+00  0.00000000E+00  6.89990666E-02
  3.16423961E-01  7.44308291E-01  1.00000000E+00  0.00000000E+00  0.00000000E+00
  0.00000000E+00  0.00000000E+00  0.00000000E+00  0.00000000E+00  0.00000000E+00
  0.00000000E+00  0.00000000E+00  0.00000000E+00  0.00000000E+00  0.00000000E+00
  0.00000000E+00  0.00000000E+00  0.00000000E+00  0.00000000E+00  0.00000000E+00
  0.00000000E+00  0.00000000E+00  6.89990666E-02  3.16423961E-01  7.44308291E-01
  1.00000000E+00  0.00000000E+00  0.00000000E+00  0.00000000E+00  0.00000000E+00
  0.00000000E+00  0.00000000E+00  0.00000000E+00  0.00000000E+00  0.00000000E+00
  0.00000000E+00  0.00000000E+00  0.00000000E+00  0.00000000E+00  0.00000000E+00
  0.00000000E+00  0.00000000E+00  0.00000000E+00  0.00000000E+00  0.00000000E+00
  4.43826452E-03  3.26679333E-02  1.34721137E-01  3.28678335E-01  4.49640458E-01
  2.61372266E-01 -1.77951061E-02  2.53539086E-01  8.00669272E-01  1.00000000E+00
  0.00000000E+00  0.00000000E+00  0.00000000E+00  0.00000000E+00  0.00000000E+00
  0.00000000E+00  0.00000000E+00  0.00000000E+00  0.00000000E+00
Coordinates of each shell                  R   N=         135
  0.00000000E+00  0.00000000E+00  0.00000000E+00  0.00000000E+00  0.00000000E+00
  0.00000000E+00  0.00000000E+00  0.00000000E+00  0.00000000E+00  0.00000000E+00
  0.00000000E+00  0.00000000E+00 -1.71000429E+00  9.00202390E-01 -7.52651157E-01
 -1.71000429E+00  9.00202390E-01 -7.52651157E-01 -2.85186085E+00 -1.79675137E+00
  4.76639711E+00 -2.85186085E+00 -1.79675137E+00  4.76639711E+00 -2.85186085E+00
 -1.79675137E+00  4.76639711E+00 -2.85186085E+00 -1.79675137E+00  4.76639711E+00
 -2.90845030E+00 -1.83044502E+00  6.83923747E+00 -2.90845030E+00 -1.83044502E+00
  6.83923747E+00 -4.61687282E+00 -9.31646034E-01  4.10503590E+00 -4.61687282E+00
 -9.31646034E-01  4.10503590E+00 -2.83216272E+00 -3.76312985E+00  4.10767542E+00
 -2.83216272E+00 -3.76312985E+00  4.10767542E+00  2.98186620E+00 -1.57116460E+00
  4.76686849E+00  2.98186620E+00 -1.57116460E+00  4.76686849E+00  2.98186620E+00
 -1.57116460E+00  4.76686849E+00  2.98186620E+00 -1.57116460E+00  4.76686849E+00
  3.11398597E+00 -3.53308650E+00  4.10774622E+00  3.11398597E+00 -3.53308650E+00
  4.10774622E+00  4.67505852E+00 -5.72387366E-01  4.10613550E+00  4.67505852E+00
 -5.72387366E-01  4.10613550E+00  3.04034897E+00 -1.60090150E+00  6.83972893E+00
  3.04034897E+00 -1.60090150E+00  6.83972893E+00 -1.30324528E-01  3.36809056E+00
  4.76644419E+00 -1.30324528E-01  3.36809056E+00  4.76644419E+00 -1.30324528E-01
  3.36809056E+00  4.76644419E+00 -1.30324528E-01  3.36809056E+00  4.76644419E+00
  1.50307760E+00  4.46321903E+00  4.10784451E+00  1.50307760E+00  4.46321903E+00
  4.10784451E+00 -1.84152628E+00  4.33515184E+00  4.10501051E+00 -1.84152628E+00
  4.33515184E+00  4.10501051E+00 -1.34508759E-01  3.43374670E+00  6.83930255E+00
 -1.34508759E-01  3.43374670E+00  6.83930255E+00  0.00000000E+00  0.00000000E+00
  3.57498929E+00  0.00000000E+00  0.00000000E+00  3.57498929E+00  0.00000000E+00
  0.00000000E+00  3.57498929E+00  0.00000000E+00  0.00000000E+00  3.57498929E+00
  0.00000000E+00  0.00000000E+00  3.57498929E+00  7.52921123E-02 -1.93089789E+00
 -7.52940436E-01  7.52921123E-02 -1.93089789E+00 -7.52940436E-01  1.63443588E+00
  1.03081446E+00 -7.52981141E-01  1.63443588E+00  1.03081446E+00 -7.52981141E-01
Num ILSW                                   I              100
ILSW                                       I   N=         100
           0           1           0           0           2           0
           0           0           0           0         402          -1
           5           0           0           0           0           0
           0           0           1           0           0           0
           1           1           0           0           0           0
           0           0      100000           0          -1           0
           0           0           0           0           0           0
           0           0           0           1           0           0
           0 -2000000000           1           0           0           0
           0           0           4          52           0           0
           0           0           5           0           0           0
           0           0           0           0           0           1
           0           0           0           0           0           0
           0           0           0           0           0           0
           0           0           0           0           0           0
           0           0           0           0           0           0
           0           0           0           0
Num RLSW                                   I               52
RLSW                                       R   N=          52
  8.00000000E-01  7.20000000E-01  1.00000000E+00  8.10000000E-01  2.00000000E-01
  0.00000000E+00  0.00000000E+00  1.00000000E+00  0.00000000E+00  0.00000000E+00
  0.00000000E+00  0.00000000E+00  1.00000000E+00  0.00000000E+00  0.00000000E+00
  0.00000000E+00  0.00000000E+00  1.00000000E+00  0.00000000E+00  0.00000000E+00
  0.00000000E+00  0.00000000E+00  1.00000000E+00  0.00000000E+00  0.00000000E+00
  0.00000000E+00  0.00000000E+00  1.00000000E+00  0.00000000E+00  0.00000000E+00
  0.00000000E+00  0.00000000E+00  1.00000000E+00  0.00000000E+00  0.00000000E+00
  0.00000000E+00  0.00000000E+00  0.00000000E+00  1.00000000E+00  1.00000000E+00
  0.00000000E+00  1.00000000E+00  0.00000000E+00  0.00000000E+00  0.00000000E+00
  0.00000000E+00  0.00000000E+00  0.00000000E+00  0.00000000E+00  0.00000000E+00
  0.00000000E+00  0.00000000E+00
MxBond                                     I                4
NBond                                      I   N=          17
           4           1           4           1           1           1
           4           1           1           1           4           1
           1           1           4           1           1
IBond                                      I   N=          68
           2          15          16          17           1           0
           0           0           4           5           6          15
           3           0           0           0           3           0
           0           0           3           0           0           0
           8           9          10          15           7           0
           0           0           7           0           0           0
           7           0           0           0          12          13
          14          15          11           0           0           0
          11           0           0           0          11           0
           0           0           1           3           7          11
           1           0           0           0           1           0
           0           0
RBond                                      R   N=          68
  1.00000000E+00  1.00000000E+00  1.00000000E+00  1.00000000E+00  1.00000000E+00
  0.00000000E+00  0.00000000E+00  0.00000000E+00  1.00000000E+00  1.00000000E+00
  1.00000000E+00  1.00000000E+00  1.00000000E+00  0.00000000E+00  0.00000000E+00
  0.00000000E+00  1.00000000E+00  0.00000000E+00  0.00000000E+00  0.00000000E+00
  1.00000000E+00  0.00000000E+00  0.00000000E+00  0.00000000E+00  1.00000000E+00
  1.00000000E+00  1.00000000E+00  1.00000000E+00  1.00000000E+00  0.00000000E+00
  0.00000000E+00  0.00000000E+00  1.00000000E+00  0.00000000E+00  0.00000000E+00
  0.00000000E+00  1.00000000E+00  0.00000000E+00  0.00000000E+00  0.00000000E+00
  1.00000000E+00  1.00000000E+00  1.00000000E+00  1.00000000E+00  1.00000000E+00
  0.00000000E+00  0.00000000E+00  0.00000000E+00  1.00000000E+00  0.00000000E+00
  0.00000000E+00  0.00000000E+00  1.00000000E+00  0.00000000E+00  0.00000000E+00
  0.00000000E+00  1.00000000E+00  1.00000000E+00  1.00000000E+00  1.00000000E+00
  1.00000000E+00  0.00000000E+00  0.00000000E+00  0.00000000E+00  1.00000000E+00
  0.00000000E+00  0.00000000E+00  0.00000000E+00
Virial Ratio                               R      2.006355380999409E+00
SCF Energy                                 R     -4.491916656234574E+02
Total Energy                               R     -4.491916656234574E+02
RMS Density                                R      3.593791920302327E-09
Job Status                                 I                1
Nuclear derivative order                   I                0
External E-field                           R   N=          35
  0.00000000E+00  0.00000000E+00  0.00000000E+00  0.00000000E+00  0.00000000E+00
  0.00000000E+00  0.00000000E+00  0.00000000E+00  0.00000000E+00  0.00000000E+00
  0.00000000E+00  0.00000000E+00  0.00000000E+00  0.00000000E+00  0.00000000E+00
  0.00000000E+00  0.00000000E+00  0.00000000E+00  0.00000000E+00  0.00000000E+00
  0.00000000E+00  0.00000000E+00  0.00000000E+00  0.00000000E+00  0.00000000E+00
  0.00000000E+00  0.00000000E+00  0.00000000E+00  0.00000000E+00  0.00000000E+00
  0.00000000E+00  0.00000000E+00  0.00000000E+00  0.00000000E+00  0.00000000E+00
IOpCl                                      I                0
IROHF                                      I                0
Alpha Orbital Energies                     R   N=         103
 -6.61099661E+01 -1.01548435E+01 -1.01548393E+01 -1.01548369E+01 -1.01548314E+01
 -5.25483694E+00 -3.61353064E+00 -3.61353049E+00 -3.61353033E+00 -7.11651531E-01
 -6.69464874E-01 -6.69461275E-01 -6.69459553E-01 -4.50252099E-01 -4.06039659E-01
 -4.06037653E-01 -4.06033770E-01 -3.91022075E-01 -3.91016470E-01 -3.73834760E-01
 -3.73830645E-01 -3.73829733E-01 -2.88538985E-01 -2.88533353E-01 -2.88529184E-01
  7.48800875E-02  1.03558695E-01  1.03561542E-01  1.03568160E-01  1.39895932E-01
  1.39899109E-01  1.39900488E-01  1.51259899E-01  1.51263462E-01  2.02729003E-01
  2.02732463E-01  2.02734787E-01  2.06792567E-01  2.06793962E-01  2.06800236E-01
  2.19262625E-01  3.86214822E-01  3.86224794E-01  3.86228887E-01  4.14031295E-01
  4.48509877E-01  4.48517969E-01  6.13396663E-01  6.13406581E-01  6.13414003E-01
  6.93209028E-01  7.39619793E-01  7.39631014E-01  7.39647717E-01  7.62418300E-01
  7.62431134E-01  7.62456911E-01  7.78515607E-01  7.78521098E-01  8.89133948E-01
  8.89152916E-01  8.89164220E-01  9.11801635E-01  9.11807970E-01  9.11809140E-01
  9.40811511E-01  9.40815881E-01  9.40821748E-01  9.44463455E-01  9.44468369E-01
  9.52026329E-01  1.02420946E+00  1.02421792E+00  1.02423085E+00  1.28197735E+00
  1.28199540E+00  1.28203101E+00  1.38927349E+00  1.66964679E+00  1.66964789E+00
  1.66965075E+00  1.78374972E+00  1.78375528E+00  1.83363783E+00  1.83364594E+00
  1.83367773E+00  2.04569706E+00  2.23707676E+00  2.23708317E+00  2.23709486E+00
  2.28294786E+00  2.28294988E+00  2.28295480E+00  2.29035127E+00  2.29035641E+00
  2.29798273E+00  2.29798686E+00  2.29799280E+00  3.11206445E+00  4.14538242E+00
  4.22504393E+00  4.22505235E+00  4.22506587E+00
Alpha MO coefficients                      R   N=       10609
 -3.92815716E-05 -3.35514914E-05  4.07631354E-09 -1.26360169E-09  3.63399693E-05
  1.71127085E-03 -4.48638966E-08  1.26048727E-08  2.98710944E-04 -6.46464450E-05
 -6.46563867E-05 -2.81168318E-04 -6.51981940E-09 -4.03997853E-09  1.47535672E-09
 -7.76544894E-05 -4.43196302E-04 -3.92822081E-05 -3.35507132E-05  2.90049321E-05
  1.82650717E-05 -1.21246024E-05  1.71120088E-03  2.38231945E-04  1.50168914E-04
 -9.94902987E-05 -2.02422853E-04 -1.19338191E-04 -8.86962373E-05 -1.00220961E-04
  6.64589134E-05  4.18689775E-05 -7.76382488E-05 -4.43228430E-04 -7.76255051E-05
 -4.43249223E-04 -7.76308072E-05 -4.43152710E-04 -3.92862521E-05 -3.35628926E-05
 -3.03038660E-05  1.59835848E-05 -1.21126568E-05  1.71130434E-03 -2.49214572E-04
  1.31192498E-04 -9.95977257E-05 -2.15286016E-04 -1.06477414E-04 -8.87325521E-05
  9.16468524E-05 -6.95125438E-05  3.66355617E-05 -7.76529197E-05 -4.43228838E-04
 -7.76359751E-05 -4.43126190E-04 -7.76128680E-05 -4.43248236E-04 -3.92821225E-05
 -3.35514523E-05  1.30650146E-06 -3.42356398E-05 -1.21199627E-05  1.71125504E-03
  1.10140272E-05 -2.81434076E-04 -9.95218581E-05 -6.49449051E-05 -2.56831354E-04
 -8.86988055E-05  8.58557921E-06  3.03008654E-06 -7.84997672E-05 -7.76355837E-05
 -4.43258188E-04 -7.76039961E-05 -4.43192632E-04 -7.76512460E-05 -4.43181690E-04
  9.96551372E-01  1.29515298E-02 -3.19511478E-09  4.73796209E-10  5.69170037E-10
 -2.94690359E-02  2.24625192E-08 -3.03866966E-08  2.78546873E-08  3.92322355E-03
 -6.45046759E-08  1.61674735E-08 -1.08121672E-08  9.95222704E-03  9.95223705E-03
  9.95224640E-03  7.58416734E-10 -2.28926463E-08  7.84504938E-09 -7.76126766E-05
 -4.43248223E-04 -7.76252758E-05 -4.43202467E-04 -8.17022747E-02 -4.07217529E-03
 -6.10887799E-05  2.92644996E-05  2.78746927E-05  1.09177078E-03  1.60805378E-04
 -7.69566944E-05 -3.10334927E-04  7.49841374E-04  7.42542289E-04  7.46077327E-04
 -6.72364522E-06 -2.85415272E-05  1.36762438E-05 -1.66243091E-05  3.71728506E-05
 -2.01250529E-01 -1.00765327E-02  4.12192836E-06  7.03147614E-05 -4.52300007E-05
  2.84600954E-03 -1.52604736E-04 -2.74264652E-04  1.78371144E-04  1.84208686E-03
  1.87299718E-03  1.85628870E-03  1.60178470E-05 -9.37271134E-06 -2.39358382E-05
  6.15173139E-05 -8.49771302E-04  1.61290712E-06 -2.74146427E-04  6.55647097E-05
 -8.88444657E-04  9.56871568E-01  4.80903610E-02  1.61085705E-04 -8.78444842E-05
  7.08838674E-05 -1.41465490E-02  2.02467739E-04 -9.89186176E-05  6.38823726E-05
 -8.98310452E-03 -8.87571791E-03 -8.85781900E-03  9.23219696E-05 -7.20103783E-05
  3.87117565E-05 -1.11185786E-04  2.12707888E-03 -1.08346397E-04  2.09944746E-03
 -1.15184866E-04  2.16560737E-03 -1.51667501E-01 -7.58623430E-03 -5.86373682E-05
 -3.36370969E-05 -4.02911333E-05  2.11849184E-03  1.46871012E-04  2.79062522E-04
  1.73725139E-04  1.39265521E-03  1.39878158E-03  1.39757272E-03  2.38612081E-05
  1.52807688E-05  1.69133520E-05  6.07848138E-05 -7.86864341E-04 -5.92728622E-06
 -1.45124082E-04  5.39884501E-05 -7.21041205E-04  4.58524688E-06 -2.25805218E-05
 -3.00586231E-05  1.44216903E-05 -8.80554320E-06  1.34642574E-04  7.26430513E-04
 -3.48382964E-04  2.13142166E-04  2.25283521E-03  1.09488213E-03 -5.24469134E-04
  3.21446084E-04  3.08776429E-05 -4.42769580E-05 -4.62815803E-05 -6.87675419E-05
  5.19103866E-05 -2.48759114E-05  4.72832290E-05 -5.77155173E-04  5.02574531E-05
 -6.04977058E-04 -8.05614024E-02 -4.02955272E-03  3.61164005E-05  6.09366313E-05
  2.28510766E-05  1.12515096E-03 -9.50942468E-05 -1.60490260E-04 -1.68087832E-04
  7.44801462E-04  7.33374909E-04  7.46837148E-04  4.99975806E-06  1.68562058E-05
  2.84385954E-05  2.15516625E-05 -3.14954592E-04  8.22808074E-01  4.13423783E-02
 -1.52243394E-04 -5.77001940E-05  6.59588881E-05 -1.21296670E-02 -4.20817981E-05
 -1.27146580E-04  1.14674508E-05 -7.71755806E-03 -7.62859385E-03 -7.61440036E-03
 -7.72315498E-05  6.37065613E-05  3.00012358E-05 -1.07032108E-04  1.94844153E-03
 -1.16232655E-04  2.03741259E-03 -8.03250301E-05  1.69158855E-03  7.99578411E-02
  4.03259072E-03  4.67230099E-05  5.52957483E-05 -8.49735215E-06 -1.23016229E-03
  3.32909741E-05 -2.27907660E-04  8.49810297E-05 -7.82229693E-04 -7.25831413E-04
 -7.42116737E-04 -2.69435297E-06 -1.24877750E-05 -1.46875877E-05  3.30803924E-05
 -2.42857466E-04 -4.57742819E-05  5.14831784E-04  6.36718058E-06  1.39560667E-05
 -5.43953556E-01 -2.73035128E-02  4.24748159E-05 -1.03829667E-04 -7.09171693E-05
  7.92420178E-03 -1.07438360E-04  1.58797254E-04  1.46123518E-04  5.01729712E-03
  5.09707323E-03  5.02987462E-03 -1.90155559E-05 -1.22059648E-05  5.05258570E-05
  4.94478912E-05 -1.10976637E-03  9.23276998E-05 -1.52147606E-03  1.01567764E-04
 -1.61052081E-03  2.44146208E-06 -1.20484689E-05  1.77686089E-05  2.99626943E-05
 -6.23606000E-06  7.16222632E-05 -4.29365910E-04 -7.24137848E-04  1.50768352E-04
  1.20045176E-03 -6.46684955E-04 -1.09121381E-03  2.27132700E-04  5.73149624E-05
 -5.98293627E-05 -2.92662368E-05  5.15297334E-05 -3.06483789E-05 -5.16997673E-05
  5.75339500E-05 -6.60787463E-04 -2.11791506E-05  9.67395318E-05 -4.77977817E-01
 -2.39553971E-02  1.45513146E-05 -2.60083277E-05  1.20005168E-04  6.83842086E-03
 -3.84549453E-05  6.85471884E-05 -5.33297581E-04  4.39352455E-03  4.39908314E-03
  4.46870309E-03  1.33203157E-06  6.78163109E-06 -1.21359388E-05  1.06103107E-04
 -1.61220733E-03  4.26392793E-01  2.14669478E-02 -6.00239936E-05 -7.29607618E-05
 -2.72897644E-05 -6.43138186E-03 -3.72697573E-04 -1.42197965E-04  2.93567578E-04
 -4.01954098E-03 -3.98396025E-03 -3.94863110E-03 -7.05047049E-05  1.32553080E-05
  1.77172960E-05  5.20148522E-06  3.86106532E-04 -3.19094531E-05  7.43174823E-04