SnCl3_new_1 0.0                                                         
SP        RB3LYP                                                      6-31G(d)            
Number of atoms                            I                7
Info1-9                                    I   N=           9
          16          16           0           0           0         110
           1          18        -502
Full Title                                 C   N=           2
SnCl3_new_1 0.0         
Route                                      C   N=           2
# nosymm b3lyp/6-31G*   
Charge                                     I                0
Multiplicity                               I                1
Number of electrons                        I               60
Number of alpha electrons                  I               30
Number of beta electrons                   I               30
Number of basis functions                  I               78
Number of independent functions            I               78
Number of point charges in /Mol/           I                0
Number of translation vectors              I                0
Atomic numbers                             I   N=           7
           6           1          17          17          17           1
           1
Nuclear charges                            R   N=           7
  6.00000000E+00  1.00000000E+00  1.70000000E+01  1.70000000E+01  1.70000000E+01
  1.00000000E+00  1.00000000E+00
Current cartesian coordinates              R   N=          21
  0.00000000E+00  0.00000000E+00  0.00000000E+00 -4.02868445E-02 -1.95175701E+00
 -6.40334208E-01 -3.57840162E+00 -1.97186299E+00  5.67883758E+00  8.10530369E-02
  4.08533281E+00  5.67793459E+00  3.49735660E+00 -2.11225079E+00  5.67893911E+00
  1.71044990E+00  9.41130419E-01 -6.40032021E-01 -1.67019454E+00  1.01086135E+00
 -6.40030283E-01
Number of symbols in /Mol/                 I                0
Force Field                                I                0
Atom Types                                 C   N=           7
                                                            
                        
Int Atom Types                             I   N=           7
           0           0           0           0           0           0
           0
MM charges                                 R   N=           7
  0.00000000E+00  0.00000000E+00  0.00000000E+00  0.00000000E+00  0.00000000E+00
  0.00000000E+00  0.00000000E+00
Integer atomic weights                     I   N=           7
          12           1          35          35          35           1
           1
Real atomic weights                        R   N=           7
  1.20000000E+01  1.00782504E+00  3.49688527E+01  3.49688527E+01  3.49688527E+01
  1.00782504E+00  1.00782504E+00
Atom fragment info                         I   N=           7
           0           0           0           0           0           0
           0
Atom residue num                           I   N=           7
           0           0           0           0           0           0
           0
Nuclear spins                              I   N=           7
           0           1           3           3           3           1
           1
Nuclear ZEff                               R   N=           7
 -3.60000000E+00 -1.00000000E+00 -1.42400000E+01 -1.42400000E+01 -1.42400000E+01
 -1.00000000E+00 -1.00000000E+00
Nuclear ZNuc                               R   N=           7
  6.00000000E+00  1.00000000E+00  1.70000000E+01  1.70000000E+01  1.70000000E+01
  1.00000000E+00  1.00000000E+00
Nuclear QMom                               R   N=           7
  0.00000000E+00  0.00000000E+00 -8.16500000E+00 -8.16500000E+00 -8.16500000E+00
  0.00000000E+00  0.00000000E+00
Nuclear GFac                               R   N=           7
  0.00000000E+00  2.79284600E+00  8.21874000E-01  8.21874000E-01  8.21874000E-01
  2.79284600E+00  2.79284600E+00
MicOpt                                     I   N=           7
          -1          -1          -1          -1          -1          -1
          -1
Number of residues                         I                0
Number of secondary structures             I                0
Number of contracted shells                I               25
Number of primitive shells                 I               74
Pure/Cartesian d shells                    I                1
Pure/Cartesian f shells                    I                0
Highest angular momentum                   I                2
Largest degree of contraction              I                6
Shell types                                I   N=          25
           0          -1          -1           2           0           0
           0          -1          -1          -1           2           0
          -1          -1          -1           2           0          -1
          -1          -1           2           0           0           0
           0
Number of primitives per shell             I   N=          25
           6           3           1           1           3           1
           6           6           3           1           1           6
           6           3           1           1           6           6
           3           1           1           3           1           3
           1
Shell to atom map                          I   N=          25
           1           1           1           1           2           2
           3           3           3           3           3           4
           4           4           4           4           5           5
           5           5           5           6           6           7
           7
Primitive exponents                        R   N=          74
  3.04752488E+03  4.57369518E+02  1.03948685E+02  2.92101553E+01  9.28666296E+00
  3.16392696E+00  7.86827235E+00  1.88128854E+00  5.44249258E-01  1.68714478E-01
  8.00000000E-01  1.87311370E+01  2.82539436E+00  6.40121692E-01  1.61277759E-01
  2.51801000E+04  3.78035000E+03  8.60474000E+02  2.42145000E+02  7.73349000E+01
  2.62470000E+01  4.91765000E+02  1.16984000E+02  3.74153000E+01  1.37834000E+01
  5.45215000E+00  2.22588000E+00  3.18649000E+00  1.14427000E+00  4.20377000E-01
  1.42657000E-01  7.50000000E-01  2.51801000E+04  3.78035000E+03  8.60474000E+02
  2.42145000E+02  7.73349000E+01  2.62470000E+01  4.91765000E+02  1.16984000E+02
  3.74153000E+01  1.37834000E+01  5.45215000E+00  2.22588000E+00  3.18649000E+00
  1.14427000E+00  4.20377000E-01  1.42657000E-01  7.50000000E-01  2.51801000E+04
  3.78035000E+03  8.60474000E+02  2.42145000E+02  7.73349000E+01  2.62470000E+01
  4.91765000E+02  1.16984000E+02  3.74153000E+01  1.37834000E+01  5.45215000E+00
  2.22588000E+00  3.18649000E+00  1.14427000E+00  4.20377000E-01  1.42657000E-01
  7.50000000E-01  1.87311370E+01  2.82539436E+00  6.40121692E-01  1.61277759E-01
  1.87311370E+01  2.82539436E+00  6.40121692E-01  1.61277759E-01
Contraction coefficients                   R   N=          74
  1.83473713E-03  1.40373228E-02  6.88426223E-02  2.32184443E-01  4.67941348E-01
  3.62311985E-01 -1.19332420E-01 -1.60854152E-01  1.14345644E+00  1.00000000E+00
  1.00000000E+00  3.34946043E-02  2.34726953E-01  8.13757326E-01  1.00000000E+00
  1.83295985E-03  1.40341988E-02  6.90973943E-02  2.37451980E-01  4.83033960E-01
  3.39855972E-01 -2.29739142E-03 -3.07137189E-02 -1.12528069E-01  4.50163278E-02
  5.89353363E-01  4.65206287E-01 -2.51828028E-01  6.15892514E-02  1.06018433E+00
  1.00000000E+00  1.00000000E+00  1.83295985E-03  1.40341988E-02  6.90973943E-02
  2.37451980E-01  4.83033960E-01  3.39855972E-01 -2.29739142E-03 -3.07137189E-02
 -1.12528069E-01  4.50163278E-02  5.89353363E-01  4.65206287E-01 -2.51828028E-01
  6.15892514E-02  1.06018433E+00  1.00000000E+00  1.00000000E+00  1.83295985E-03
  1.40341988E-02  6.90973943E-02  2.37451980E-01  4.83033960E-01  3.39855972E-01
 -2.29739142E-03 -3.07137189E-02 -1.12528069E-01  4.50163278E-02  5.89353363E-01
  4.65206287E-01 -2.51828028E-01  6.15892514E-02  1.06018433E+00  1.00000000E+00
  1.00000000E+00  3.34946043E-02  2.34726953E-01  8.13757326E-01  1.00000000E+00
  3.34946043E-02  2.34726953E-01  8.13757326E-01  1.00000000E+00
P(S=P) Contraction coefficients            R   N=          74
  0.00000000E+00  0.00000000E+00  0.00000000E+00  0.00000000E+00  0.00000000E+00
  0.00000000E+00  6.89990666E-02  3.16423961E-01  7.44308291E-01  1.00000000E+00
  0.00000000E+00  0.00000000E+00  0.00000000E+00  0.00000000E+00  0.00000000E+00
  0.00000000E+00  0.00000000E+00  0.00000000E+00  0.00000000E+00  0.00000000E+00
  0.00000000E+00  3.98940088E-03  3.03177067E-02  1.29880029E-01  3.27951072E-01
  4.53527100E-01  2.52154056E-01 -1.42993147E-02  3.23572333E-01  7.43507765E-01
  1.00000000E+00  0.00000000E+00  0.00000000E+00  0.00000000E+00  0.00000000E+00
  0.00000000E+00  0.00000000E+00  0.00000000E+00  3.98940088E-03  3.03177067E-02
  1.29880029E-01  3.27951072E-01  4.53527100E-01  2.52154056E-01 -1.42993147E-02
  3.23572333E-01  7.43507765E-01  1.00000000E+00  0.00000000E+00  0.00000000E+00
  0.00000000E+00  0.00000000E+00  0.00000000E+00  0.00000000E+00  0.00000000E+00
  3.98940088E-03  3.03177067E-02  1.29880029E-01  3.27951072E-01  4.53527100E-01
  2.52154056E-01 -1.42993147E-02  3.23572333E-01  7.43507765E-01  1.00000000E+00
  0.00000000E+00  0.00000000E+00  0.00000000E+00  0.00000000E+00  0.00000000E+00
  0.00000000E+00  0.00000000E+00  0.00000000E+00  0.00000000E+00
Coordinates of each shell                  R   N=          75
  0.00000000E+00  0.00000000E+00  0.00000000E+00  0.00000000E+00  0.00000000E+00
  0.00000000E+00  0.00000000E+00  0.00000000E+00  0.00000000E+00  0.00000000E+00
  0.00000000E+00  0.00000000E+00 -4.02868445E-02 -1.95175701E+00 -6.40334208E-01
 -4.02868445E-02 -1.95175701E+00 -6.40334208E-01 -3.57840162E+00 -1.97186299E+00
  5.67883758E+00 -3.57840162E+00 -1.97186299E+00  5.67883758E+00 -3.57840162E+00
 -1.97186299E+00  5.67883758E+00 -3.57840162E+00 -1.97186299E+00  5.67883758E+00
 -3.57840162E+00 -1.97186299E+00  5.67883758E+00  8.10530369E-02  4.08533281E+00
  5.67793459E+00  8.10530369E-02  4.08533281E+00  5.67793459E+00  8.10530369E-02
  4.08533281E+00  5.67793459E+00  8.10530369E-02  4.08533281E+00  5.67793459E+00
  8.10530369E-02  4.08533281E+00  5.67793459E+00  3.49735660E+00 -2.11225079E+00
  5.67893911E+00  3.49735660E+00 -2.11225079E+00  5.67893911E+00  3.49735660E+00
 -2.11225079E+00  5.67893911E+00  3.49735660E+00 -2.11225079E+00  5.67893911E+00
  3.49735660E+00 -2.11225079E+00  5.67893911E+00  1.71044990E+00  9.41130419E-01
 -6.40032021E-01  1.71044990E+00  9.41130419E-01 -6.40032021E-01 -1.67019454E+00
  1.01086135E+00 -6.40030283E-01 -1.67019454E+00  1.01086135E+00 -6.40030283E-01
Num ILSW                                   I              100
ILSW                                       I   N=         100
           0           1           0           0           2           0
           0           0           0           0         402          -1
           5           0           0           0           0           0
           0           0           1           0           0           0
           1           1           0           0           0           0
           0           0      100000           0          -1           0
           0           0           0           0           0           0
           0           0           0           1           0           0
           0 -2000000000           1           0           0           0
           0           0           4          52           0           0
           0           0           5           0           0           0
           0           0           0           0           0           1
           0           0           0           0           0           0
           0           0           0           0           0           0
           0           0           0           0           0           0
           0           0           0           0           0           0
           0           0           0           0
Num RLSW                                   I               52
RLSW                                       R   N=          52
  8.00000000E-01  7.20000000E-01  1.00000000E+00  8.10000000E-01  2.00000000E-01
  0.00000000E+00  0.00000000E+00  1.00000000E+00  0.00000000E+00  0.00000000E+00
  0.00000000E+00  0.00000000E+00  1.00000000E+00  0.00000000E+00  0.00000000E+00
  0.00000000E+00  0.00000000E+00  1.00000000E+00  0.00000000E+00  0.00000000E+00
  0.00000000E+00  0.00000000E+00  1.00000000E+00  0.00000000E+00  0.00000000E+00
  0.00000000E+00  0.00000000E+00  1.00000000E+00  0.00000000E+00  0.00000000E+00
  0.00000000E+00  0.00000000E+00  1.00000000E+00  0.00000000E+00  0.00000000E+00
  0.00000000E+00  0.00000000E+00  0.00000000E+00  1.00000000E+00  1.00000000E+00
  0.00000000E+00  1.00000000E+00  0.00000000E+00  0.00000000E+00  0.00000000E+00
  0.00000000E+00  0.00000000E+00  0.00000000E+00  0.00000000E+00  0.00000000E+00
  0.00000000E+00  0.00000000E+00
MxBond                                     I                3
NBond                                      I   N=           7
           3           1           0           0           0           1
           1
IBond                                      I   N=          21
           2           6           7           1           0           0
           0           0           0           0           0           0
           0           0           0           1           0           0
           1           0           0
RBond                                      R   N=          21
  1.00000000E+00  1.00000000E+00  1.00000000E+00  1.00000000E+00  0.00000000E+00
  0.00000000E+00  0.00000000E+00  0.00000000E+00  0.00000000E+00  0.00000000E+00
  0.00000000E+00  0.00000000E+00  0.00000000E+00  0.00000000E+00  0.00000000E+00
  1.00000000E+00  0.00000000E+00  0.00000000E+00  1.00000000E+00  0.00000000E+00
  0.00000000E+00
Virial Ratio                               R      2.003531376547308E+00
SCF Energy                                 R     -1.420187726715829E+03
Total Energy                               R     -1.420187726715829E+03
RMS Density                                R      7.568428417865925E-10
Job Status                                 I                1
Nuclear derivative order                   I                0
External E-field                           R   N=          35
  0.00000000E+00  0.00000000E+00  0.00000000E+00  0.00000000E+00  0.00000000E+00
  0.00000000E+00  0.00000000E+00  0.00000000E+00  0.00000000E+00  0.00000000E+00
  0.00000000E+00  0.00000000E+00  0.00000000E+00  0.00000000E+00  0.00000000E+00
  0.00000000E+00  0.00000000E+00  0.00000000E+00  0.00000000E+00  0.00000000E+00
  0.00000000E+00  0.00000000E+00  0.00000000E+00  0.00000000E+00  0.00000000E+00
  0.00000000E+00  0.00000000E+00  0.00000000E+00  0.00000000E+00  0.00000000E+00
  0.00000000E+00  0.00000000E+00  0.00000000E+00  0.00000000E+00  0.00000000E+00
IOpCl                                      I                0
IROHF                                      I                0
Alpha Orbital Energies                     R   N=          78
 -1.01558610E+02 -1.01558596E+02 -1.01551024E+02 -1.03653268E+01 -9.46953787E+00
 -9.46951955E+00 -9.46238045E+00 -7.23443584E+00 -7.23440322E+00 -7.22501393E+00
 -7.22481779E+00 -7.22480408E+00 -7.22286147E+00 -7.22284258E+00 -7.21972418E+00
 -7.21580798E+00 -7.97869112E-01 -7.83072332E-01 -7.79632040E-01 -7.75484449E-01
 -5.21296714E-01 -5.21215329E-01 -3.30044463E-01 -3.16520405E-01 -3.15018445E-01
 -3.13066962E-01 -3.08799942E-01 -3.05376146E-01 -2.98162798E-01 -2.93495880E-01
 -2.66509949E-01 -2.54937028E-01  4.76544024E-02  9.15990922E-02  9.16272519E-02
  2.62569185E-01  3.37248964E-01  3.39112894E-01  3.91084994E-01  4.12023518E-01
  4.13388828E-01  4.19060445E-01  4.25775689E-01  4.30416517E-01  5.34878981E-01
  5.41493144E-01  5.44217805E-01  5.60279294E-01  6.31122895E-01  6.35627009E-01
  7.52934642E-01  7.90516837E-01  7.90617892E-01  8.62723374E-01  8.63577632E-01
  8.65591564E-01  8.65729392E-01  8.69559903E-01  8.69924572E-01  8.71566722E-01
  8.73326283E-01  8.79060357E-01  8.79797447E-01  8.79929588E-01  8.80716894E-01
  8.81267936E-01  8.83014623E-01  8.85684050E-01  8.88891240E-01  1.52619658E+00
  1.52620546E+00  1.77845586E+00  2.11907404E+00  2.11908308E+00  3.95363176E+00
  4.19895390E+00  4.21328219E+00  4.21756511E+00
Alpha MO coefficients                      R   N=        6084
  3.22951519E-06  3.85322361E-06  3.15333436E-07  1.53239795E-05  1.29347124E-05
 -2.52065574E-05 -1.37679623E-06 -6.65399527E-05 -3.31744330E-05  4.70009189E-06
  1.50859644E-05  7.99534425E-06  2.52825854E-07  1.09330543E-08  4.52806582E-07
 -8.11929621E-06 -3.78713103E-05 -2.07029839E-04  1.40666074E-06 -1.27150526E-06
 -3.78896060E-06 -4.35222548E-07  6.24499317E-06  7.64665789E-06  2.08072215E-05
  2.10069668E-06 -4.57938193E-05 -1.92104083E-05 -4.59216449E-05 -3.51877063E-06
  1.22284364E-05  7.85171805E-06  1.39748673E-05 -4.10062710E-06 -9.94992617E-08
 -8.36439603E-08  9.96000912E-01  1.51552809E-02 -3.58001233E-07 -1.07946333E-05
 -5.56976137E-06 -2.10070832E-02  5.12733778E-07  2.32018626E-05  9.05008992E-06
  1.59986081E-03 -7.82538111E-07 -3.79974893E-05 -1.37380518E-05  7.54589569E-03
  7.55009013E-03  7.54640986E-03  2.13279737E-07  1.92332504E-08  5.55627553E-07
 -3.06474294E-06  4.50353712E-06  1.16041755E-06 -3.82889028E-06 -4.38158096E-07
  1.93205792E-06 -6.91728394E-06  2.10733886E-05  2.10701310E-06 -4.54223216E-05
  1.73032259E-05 -4.66366954E-05 -3.51912517E-06  1.40722533E-05  9.11169262E-06
  1.55119174E-05  3.87059275E-06  9.54073710E-08 -8.70129344E-08  1.08760943E-05
  6.23220568E-06  1.09003965E-05  6.17240335E-06  3.23111874E-06  3.85175239E-06
 -1.34237852E-05 -7.38871681E-06  1.29388327E-05 -2.52350570E-05  5.82834376E-05
  3.20720044E-05 -3.31704763E-05  1.26846381E-05  7.11518465E-06  8.00038325E-06
  5.06581639E-06 -3.97188256E-07 -2.18584377E-07  1.08909180E-05  6.18972785E-06
  9.96000912E-01  1.51552871E-02  9.37850345E-06  5.33407250E-06 -5.57016877E-06
 -2.10070856E-02 -2.02864609E-05 -1.12365745E-05  9.05006850E-06  1.59982742E-03
  3.32483819E-05  1.83471266E-05 -1.37372607E-05  7.54904058E-03  7.54696620E-03
  7.54642206E-03  2.11418963E-06 -4.83229710E-07 -2.75604140E-07  2.07362922E-04
  7.71180664E-06  2.76216626E-06  2.88326878E-06 -4.38516772E-07 -2.49529179E-06
 -1.48602843E-05 -1.64366334E-05  2.11000732E-06 -4.51250480E-05  3.17114193E-05
  3.83479395E-05 -3.53737254E-06  1.48622675E-05  1.14970726E-05  1.71136110E-05
 -4.40677682E-06  2.91260449E-08  1.29377133E-07 -3.11131629E-06  4.50333035E-06
  3.93033911E-06  7.52638788E-07 -4.38838923E-07  1.93467467E-06 -2.18766327E-05
 -3.67285243E-06  2.11061436E-06 -4.54313656E-05  4.93340549E-05  6.36309163E-06
 -3.52657409E-06  7.43031011E-06  1.57592505E-05  1.55141641E-05 -1.62834315E-07
  1.22505608E-07 -4.40069195E-08 -8.11239903E-06 -3.78535100E-05  1.08720659E-05
  6.22878996E-06  3.22679559E-06  3.84253936E-06  1.30918363E-05 -7.92015581E-06
  1.29012036E-05 -2.51661635E-05 -5.68381124E-05  3.43928530E-05 -3.31341452E-05
  1.22830653E-05  7.48053599E-06  7.98060936E-06 -5.31217583E-06  3.84225983E-07
 -2.34892911E-07  1.08593644E-05  6.20800456E-06  3.44357605E-06  4.59225899E-06
 -3.87932833E-06  9.41149597E-07 -4.35901504E-07  1.77290463E-06  2.16239171E-05
 -4.62440306E-06  2.10060849E-06 -4.52769984E-05 -4.88718951E-05  8.28601278E-06
 -3.52008266E-06  7.47996411E-06  1.57437278E-05  1.55219288E-05  5.36571373E-07
 -1.24464944E-07 -3.87043718E-08  3.39812896E-06  4.59299710E-06 -2.63787180E-06
  2.99538303E-06 -4.36319164E-07  1.77295959E-06  1.41544728E-05 -1.69878489E-05
  2.10295266E-06 -4.52872795E-05 -3.00773342E-05  3.94094343E-05 -3.52541010E-06
  1.35746435E-05  9.65219997E-06  1.55253420E-05  4.23607131E-06 -2.42499679E-08
  1.29040545E-07  9.96000745E-01  1.51560148E-02 -3.43245639E-06  2.07538235E-06
 -6.57679588E-06 -2.10085168E-02  1.78016392E-05 -1.07555630E-05  9.38852000E-06
  1.59981453E-03 -3.15021771E-05  1.90327518E-05 -1.38783266E-05  7.54830126E-03
  7.54856833E-03  7.54722344E-03  2.90335179E-07  8.39974139E-07 -5.07179079E-07
  1.08926512E-05  6.14367405E-06 -8.10184992E-06 -3.78061048E-05  9.92844360E-01
  4.84021428E-02 -1.85770653E-06  1.08776259E-06  3.15679692E-04 -1.14181374E-02
  1.22224537E-06 -9.01088912E-07  8.39180658E-04 -9.28653486E-03 -9.28636602E-03
 -9.53255699E-03  1.68225840E-07 -8.55042193E-07  5.44102677E-07 -2.37055058E-04
  2.31344446E-03 -1.21353141E-06 -1.15571762E-05  1.19039237E-05  6.50443685E-06
 -1.92722434E-05 -4.24363096E-05 -6.39809528E-05 -3.51302122E-05  1.05513103E-04
  1.47150754E-04  1.11885569E-04  6.17453286E-05 -1.93629941E-04 -3.28646640E-05
 -3.50003645E-05 -2.54298674E-05  1.98656792E-06 -7.45634699E-06 -4.12579098E-06
 -1.21343408E-06 -1.15632846E-05 -2.14197898E-07 -1.35697806E-05 -1.92698094E-05
 -4.24335835E-05  1.30262730E-06  7.30170621E-05  1.05503835E-04  1.47199490E-04
 -2.55365298E-06 -1.27846648E-04 -1.93630397E-04 -3.59745031E-05 -3.19214095E-05
 -2.54449213E-05  1.10688668E-07  1.80412990E-07  8.52768957E-06 -1.29475301E-06
 -1.13324521E-05 -1.13443774E-05  6.84294172E-06 -1.89018815E-05 -4.24828902E-05
  6.16437439E-05 -3.71838525E-05  1.04547245E-04  1.47695675E-04 -1.09821332E-04
  6.62418993E-05 -1.94091558E-04 -3.28977865E-05 -3.49414612E-05 -2.53409951E-05
 -2.23804273E-06  7.54837348E-06 -4.55459034E-06 -2.37021103E-04  2.31347354E-03
 -2.37309297E-04  2.31467968E-03 -1.03107714E-05 -1.69123657E-05 -7.82740190E-05
 -2.16070785E-04 -7.15228314E-05  7.29878215E-05  3.25242987E-04  8.97535791E-04
  1.74094986E-04  2.62299690E-05 -1.02992934E-04 -3.26871383E-05  2.18757153E-05
 -8.53572939E-06 -2.35291150E-05  1.18363628E-04  5.20427104E-04  1.24978185E-01
 -4.48812641E-01 -2.94421251E-04 -1.33497780E-04  2.36588647E-04 -3.22026424E-02
 -2.03442835E-04 -3.05886759E-04  4.15406572E-05  5.59241357E-03  3.75381732E-04
  5.78087089E-04 -4.02827702E-05  7.04642281E-03  7.18116161E-03  7.16412793E-03
 -9.32313476E-05  4.34262559E-06  3.41469430E-06 -2.55811008E-01  9.18579993E-01
 -1.01731925E-05 -7.17574593E-04 -4.79998880E-04  6.57515964E-02 -8.83852300E-05
 -3.34549778E-04 -1.08628404E-04 -1.07951600E-02  1.69533857E-04  5.76542793E-04
  1.25362051E-04 -1.49139500E-02 -1.44543795E-02 -1.48227838E-02  1.79435590E-05
  1.68415722E-06  9.41121729E-06  1.51058871E-04 -5.65355534E-04  4.83279401E-06
  4.68397546E-05  1.80034894E-06 -9.20639914E-05 -3.16929928E-05 -2.69110542E-04
 -7.82871683E-06  2.19797573E-04  6.59468709E-05  5.29470788E-04  1.39121067E-05
 -5.99393840E-05 -4.39208942E-06 -4.34085696E-05 -2.34104532E-05 -3.16882840E-07
  5.55631875E-07 -1.24659767E-04 -3.27365850E-04 -4.53252151E-05 -4.91243727E-05
 -3.00010045E-05 -4.91897445E-05  1.51635323E-04 -1.24595199E-06 -2.08054475E-04
  2.12710723E-04 -6.29891139E-04  5.31130279E-06  5.06161931E-04 -1.14106760E-04
 -1.09307684E-04 -9.51010572E-05 -5.12321308E-05  1.64811053E-05 -1.22626993E-07
 -5.12116786E-05  1.35560734E-04 -2.55815499E-01  9.18552154E-01  6.46293371E-04
  3.85948935E-04 -4.77491213E-04  6.56513828E-02  1.53596218E-04 -1.21056634E-05
 -1.23461184E-04 -1.03865138E-02 -2.19967046E-04  6.14322915E-05  1.52311601E-04
 -1.46574028E-02 -1.48664462E-02 -1.49228983E-02  2.52583186E-04 -6.81308959E-06
 -5.22547572E-06 -1.24987401E-01  4.48755819E-01 -4.37860577E-05 -3.95088045E-04
 -2.31199530E-04  3.19969694E-02  1.73080892E-04  9.52418604E-05 -7.19281673E-05
 -4.75634915E-03 -3.30804593E-04 -2.38328336E-04  9.55377680E-05 -7.39723111E-03
 -7.14815170E-03 -7.36872531E-03  4.13836264E-05  5.21637791E-07  3.28390820E-06
  4.40845624E-04 -1.64970157E-03 -5.75949037E-05  1.76982306E-05  5.25958860E-06
 -2.68223737E-04  3.22856358E-04 -9.60149325E-05 -2.28784752E-05  6.39454046E-04
 -6.27764752E-04  1.83685753E-04  4.06662042E-05 -7.63601082E-05 -1.10625033E-04
 -1.26177980E-04 -8.65269758E-06 -1.45839253E-06  7.53158401E-07  3.23959213E-05
  4.26392477E-04 -1.31139891E-04 -1.43956560E-04 -2.30228532E-05 -3.66386972E-05
 -1.66288238E-04  1.00579002E-04 -1.54793566E-04  1.60376826E-04  6.91045644E-04
 -4.18112958E-04  3.79994330E-04 -1.10134203E-04 -5.74123357E-05 -7.10447361E-05
  5.82804048E-05 -1.79976778E-05  1.08955595E-05 -9.77734647E-05 -1.07487941E-04
 -3.40702741E-04  1.17348849E-03  5.45071698E-05 -8.99414290E-06  2.36374775E-06
 -2.90926322E-05 -3.03733067E-04  4.94221597E-05 -1.71725433E-05  4.50506976E-04
  5.91303193E-04 -8.71515169E-05  3.10573049E-05 -8.10891485E-05 -1.35606649E-04
 -1.32948828E-04 -4.43384324E-06  1.10290137E-06  2.97170921E-07 -3.40164909E-04
  1.17154052E-03  3.33260545E-05 -4.40672217E-05  2.37113439E-06 -2.92474967E-05
 -1.85091567E-04  2.45897373E-04 -1.72083441E-05  4.50682696E-04  3.52335390E-04
 -4.82981862E-04  3.11269309E-05 -1.20648376E-04 -9.60443143E-05 -1.32961566E-04
 -2.84543250E-05  2.54009222E-07 -1.11970698E-06 -2.84709341E-01  1.02232195E+00
  1.40274042E-04 -8.45034550E-05 -6.70204051E-04  7.31913549E-02 -1.70754337E-04
  1.03194690E-04 -1.35904381E-04 -1.17942784E-02  3.33734225E-04 -2.01649506E-04
  1.57041808E-04 -1.65191167E-02 -1.63351301E-02 -1.65275588E-02  2.01609565E-04
  7.92295199E-05 -4.78702070E-05 -9.81280819E-05 -1.06866575E-04  8.34111464E-05
  5.26737916E-04  1.05436820E-05  2.60116982E-05  9.25405184E-05  1.97040495E-04
  4.35235448E-05 -1.48190077E-04 -4.17063810E-04 -8.85999292E-04 -9.97483480E-05
 -2.65214701E-05  8.74795913E-05  2.50685233E-05 -2.58628632E-05  3.70701271E-06
  7.92946193E-06 -1.06695281E-04 -4.95539911E-04  1.55586470E-04 -4.63958309E-04
  4.83770224E-01  2.90520550E-01 -1.38586512E-02  2.92560848E-04  1.43099593E-02
  8.81953694E-03 -4.30965920E-04 -1.01903439E-03 -4.45940577E-03 -3.15187226E-03
  1.60710184E-04  1.96592999E-04  1.42601020E-04  2.03784545E-04 -3.59118467E-05
 -2.00547621E-05 -1.20697134E-05 -2.18475057E-04  7.02829292E-04  4.56600364E-02
  8.12808483E-01  1.99261290E-02 -2.97343804E-04  1.47640049E-03  2.39463025E-02
  6.32948312E-04  9.53056967E-04 -6.85477025E-04 -7.28782944E-03 -2.53897115E-04
 -1.51726965E-04 -1.54531549E-04 -1.71221812E-04  3.15705807E-05 -1.91467030E-06
 -3.31302487E-05  2.43439259E-06  1.26687678E-05  4.85139601E-04  1.14606331E-03
 -9.77093672E-06  4.82967172E-05  1.02195120E-04  3.70069417E-04  5.02618357E-06
 -2.01408781E-04 -1.90191144E-04 -7.18909150E-04 -8.99872154E-06  8.95037908E-05
 -1.78881711E-05  4.79491341E-05  4.15943114E-05  2.01020600E-07 -1.59997198E-07
  1.03906416E-04  4.57336462E-04  1.92105556E-05  6.38450205E-05 -5.81337016E-05
 -1.43344349E-04  1.27525468E-04 -3.12642740E-05 -2.40019376E-04  8.17239649E-04
 -5.69635573E-04  1.38311017E-04  5.49599148E-04 -1.61192104E-04 -1.75059645E-04
 -1.38235547E-04 -4.28191952E-05  5.21378655E-06 -1.31421319E-06 -1.16425594E-05
  1.82875109E-05  2.06708502E-04 -7.62309430E-04  6.98595340E-01  4.18140985E-01
 -2.02219879E-02  6.63604787E-05  2.02540389E-02  1.19544785E-02 -6.65997494E-04
  4.26129062E-06 -5.57240109E-03 -2.98485305E-03  2.98349773E-04 -2.21158040E-05
 -1.06161737E-05 -5.59384138E-05  4.84657778E-05 -2.74035944E-05 -1.65289892E-05
  1.39151944E-04 -5.51702442E-04 -3.08304789E-02 -5.63585750E-01 -1.39729082E-02
 -4.05050375E-05 -6.77326155E-04 -1.61133081E-02 -4.69621317E-04  3.61538218E-04
 -2.05910788E-04  4.02006916E-03  2.22402198E-04 -1.07807549E-04 -4.18492338E-05
 -1.23913330E-04  4.70141066E-05  1.25782645E-06  2.17115942E-05 -1.34234137E-05
 -6.97922620E-05  9.53102041E-04 -3.14782543E-04  5.34942773E-05 -2.66265739E-04
  5.24956768E-04 -2.38927277E-04 -2.80347532E-05  1.10996317E-03 -1.05271140E-03
  4.84997512E-04  5.02474425E-05 -1.69368199E-04 -2.25334380E-04 -2.64224745E-04
 -3.26082874E-05 -1.25365050E-06  7.45460078E-07  2.65729316E-05  1.90935931E-04
 -1.05204465E-04 -3.51209959E-04  2.78507735E-09  3.57469077E-08 -1.41809353E-06
 -2.40376015E-06 -1.40164773E-07 -4.40831094E-07 -3.50027238E-05 -5.74969834E-05
  4.28642935E-07  1.30838968E-05 -1.31338103E-05  1.10895196E-08  7.93376141E-06
 -1.03916536E-06 -1.74818015E-06  7.10427191E-05 -2.07056448E-04  7.40133613E-06
  3.57302108E-05  1.31989291E-03 -3.99406477E-03  2.11304131E-03  1.55399311E-04
  3.60008819E-04 -1.93765322E-04  6.24670467E-05 -5.88157150E-04 -6.67734060E-04
  1.74692290E-04 -2.09180444E-05  7.51658504E-05  1.30538753E-04  1.33695024E-04
  9.14696929E-06 -1.97999675E-08  2.76539720E-07 -7.38941376E-06 -3.58758090E-05
 -4.17591990E-03 -6.87170017E-04 -2.25064935E-03 -1.55600199E-04 -3.40032203E-04
  2.29005145E-04 -6.63978728E-05  5.89105499E-04  4.66118490E-04 -5.10722209E-04
  2.20811391E-05 -1.12230092E-04 -9.38158596E-05 -1.33924236E-04 -3.15897372E-05
  2.59528839E-07  1.07799477E-07  7.13224031E-08 -2.24479936E-07  5.11962875E-01
  8.48497747E-01 -1.11252395E-04  1.97165164E-07  1.47443518E-02  2.44367445E-02
 -3.25928541E-06 -3.83463869E-07 -4.04395130E-03 -6.70276283E-03  9.37491957E-07
  2.34877519E-05 -2.34411081E-05  6.68173703E-08  1.42764068E-05 -2.54786605E-05
 -4.22623492E-05 -7.11781140E-05  2.07963671E-04  4.58692020E-08 -4.59234282E-08
  2.92557484E-05  6.23198002E-05  7.50938072E-05  3.17047679E-04  1.81071527E-04
 -1.85055635E-04 -3.17867128E-04 -1.33837900E-03 -4.61955808E-04  3.15142725E-06
  1.82896149E-04  8.00967109E-05 -1.76919871E-05  6.93103671E-06  2.92653306E-05
 -1.68124195E-04 -7.87923618E-04  4.27044917E-05 -1.57194205E-04 -7.05556524E-03
 -1.06116379E-03 -2.71334568E-01  1.40115930E-05 -2.01155466E-04 -3.87560124E-05
 -7.72623075E-03 -2.25120968E-06  5.76215618E-05  2.35880555E-05  2.22784296E-03
 -1.01569705E-05 -9.14883169E-06  1.02046186E-05  2.62479428E-07 -2.83932980E-06
  4.90675786E-06 -1.52947032E-04  5.46945682E-04  8.80284878E-03 -2.39353322E-02
  9.52962114E-01 -1.06788828E-04  2.46664316E-04 -6.09737479E-04  2.68732630E-02
  1.58878887E-04 -6.51845169E-05  7.40492901E-05 -7.35372158E-03  4.27118965E-06