SnCl3                                                                   
SP        RB3LYP                                                      def2TZVP            
Number of atoms                            I                5
Info1-9                                    I   N=           9
          14          14           0           0           0         110
           1          18        -502
Full Title                                 C   N=           1
SnCl3       
Route                                      C   N=           2
# nosymm b3lyp/def2tzvp 
Charge                                     I                0
Multiplicity                               I                1
Number of electrons                        I               74
Number of alpha electrons                  I               37
Number of beta electrons                   I               37
Number of basis functions                  I              167
Number of independent functions            I              167
Number of point charges in /Mol/           I                0
Number of translation vectors              I                0
Atomic numbers                             I   N=           5
           1          50          17          17          17
Nuclear charges                            R   N=           5
  1.00000000E+00  2.20000000E+01  1.70000000E+01  1.70000000E+01  1.70000000E+01
Current cartesian coordinates              R   N=          15
  0.00000000E+00  0.00000000E+00  0.00000000E+00  0.00000000E+00  0.00000000E+00
  3.20565581E+00 -4.72299250E-01 -4.05675066E+00  4.80685855E+00 -3.27704966E+00
  2.43733096E+00  4.80631053E+00  3.74957568E+00  1.61917404E+00  4.80649950E+00
Number of symbols in /Mol/                 I                0
Force Field                                I                0
Atom Types                                 C   N=           5
                                                            
Int Atom Types                             I   N=           5
           0           0           0           0           0
MM charges                                 R   N=           5
  0.00000000E+00  0.00000000E+00  0.00000000E+00  0.00000000E+00  0.00000000E+00
Integer atomic weights                     I   N=           5
           1         118          35          35          35
Real atomic weights                        R   N=           5
  1.00782504E+00  1.17901800E+02  3.49688527E+01  3.49688527E+01  3.49688527E+01
Atom fragment info                         I   N=           5
           0           0           0           0           0
Atom residue num                           I   N=           5
           0           0           0           0           0
Nuclear spins                              I   N=           5
           1           0           3           3           3
Nuclear ZEff                               R   N=           5
 -1.00000000E+00 -5.50000000E+03 -1.42400000E+01 -1.42400000E+01 -1.42400000E+01
Nuclear ZNuc                               R   N=           5
  1.00000000E+00  5.00000000E+01  1.70000000E+01  1.70000000E+01  1.70000000E+01
Nuclear QMom                               R   N=           5
  0.00000000E+00  0.00000000E+00 -8.16500000E+00 -8.16500000E+00 -8.16500000E+00
Nuclear GFac                               R   N=           5
  2.79284600E+00  0.00000000E+00  8.21874000E-01  8.21874000E-01  8.21874000E-01
MicOpt                                     I   N=           5
          -1          -1          -1          -1          -1
Number of residues                         I                0
Number of secondary structures             I                0
Number of contracted shells                I               59
Number of primitive shells                 I              116
Pure/Cartesian d shells                    I                0
Pure/Cartesian f shells                    I                0
Highest angular momentum                   I                3
Largest degree of contraction              I                7
Shell types                                I   N=          59
           0           0           0           1           0           0
           0           0           0           0           1           1
           1           1           1          -2          -2          -2
          -3          -3           0           0           0           0
           0           1           1           1           1           1
          -2          -2          -3           0           0           0
           0           0           1           1           1           1
           1          -2          -2          -3           0           0
           0           0           0           1           1           1
           1           1          -2          -2          -3
Number of primitives per shell             I   N=          59
           3           1           1           1           4           2
           1           1           1           1           3           3
           1           1           1           6           1           1
           1           1           7           3           2           1
           1           5           1           1           1           1
           2           1           1           7           3           2
           1           1           5           1           1           1
           1           2           1           1           7           3
           2           1           1           5           1           1
           1           1           2           1           1
Shell to atom map                          I   N=          59
           1           1           1           1           2           2
           2           2           2           2           2           2
           2           2           2           2           2           2
           2           2           3           3           3           3
           3           3           3           3           3           3
           3           3           3           4           4           4
           4           4           4           4           4           4
           4           4           4           4           5           5
           5           5           5           5           5           5
           5           5           5           5           5
Primitive exponents                        R   N=         116
  3.40613410E+01  5.12357460E+00  1.16466260E+00  3.27230410E-01  1.03072410E-01
  8.00000000E-01  1.57707159E+03  2.35266011E+02  3.82063306E+01  1.30970318E+01
  1.16814928E+01  5.96476044E+00  1.88910707E+00  8.85140806E-01  2.05001052E-01
  7.67485510E-02  2.21557675E+02  2.10840214E+01  8.76001385E+00  2.59129097E+00
  1.34268012E+00  6.77327358E-01  2.94187568E-01  1.18637621E-01  4.62157506E-02
  1.08332102E+02  2.37039366E+01  2.23398439E+01  4.08748340E+00  1.97373541E+00
  9.01582577E-01  3.82371536E-01  1.20000000E-01  2.93928485E-01  1.00000000E+00
  6.95079909E+04  1.04261569E+04  2.37323341E+03  6.71564201E+02  2.18419998E+02
  7.75722497E+01  2.88888153E+01  1.27105272E+02  3.93395830E+01  7.67406800E+00
  3.87456276E+00  1.83858326E+00  5.02290575E-01  1.79627234E-01  6.66504233E+02
  1.57642417E+02  5.02625210E+01  1.85360781E+01  7.29405328E+00  2.94332490E+00
  1.04049708E+00  3.84564151E-01  1.30696427E-01  4.61000000E+00  1.01100000E+00
  3.39000000E-01  7.06000000E-01  6.95079909E+04  1.04261569E+04  2.37323341E+03
  6.71564201E+02  2.18419998E+02  7.75722497E+01  2.88888153E+01  1.27105272E+02
  3.93395830E+01  7.67406800E+00  3.87456276E+00  1.83858326E+00  5.02290575E-01
  1.79627234E-01  6.66504233E+02  1.57642417E+02  5.02625210E+01  1.85360781E+01
  7.29405328E+00  2.94332490E+00  1.04049708E+00  3.84564151E-01  1.30696427E-01
  4.61000000E+00  1.01100000E+00  3.39000000E-01  7.06000000E-01  6.95079909E+04
  1.04261569E+04  2.37323341E+03  6.71564201E+02  2.18419998E+02  7.75722497E+01
  2.88888153E+01  1.27105272E+02  3.93395830E+01  7.67406800E+00  3.87456276E+00
  1.83858326E+00  5.02290575E-01  1.79627234E-01  6.66504233E+02  1.57642417E+02
  5.02625210E+01  1.85360781E+01  7.29405328E+00  2.94332490E+00  1.04049708E+00
  3.84564151E-01  1.30696427E-01  4.61000000E+00  1.01100000E+00  3.39000000E-01
  7.06000000E-01
Contraction coefficients                   R   N=         116
  2.54393072E-02  1.90085949E-01  8.52441130E-01  1.00000000E+00  1.00000000E+00
  1.00000000E+00  3.21841847E-04  1.53845365E-03 -7.37583724E-03  1.00551544E+00
  6.80991478E-01  3.37165069E-01  1.00000000E+00  1.00000000E+00  1.00000000E+00
  1.00000000E+00  1.23616842E-03  1.23549003E-01 -1.09503287E+00  4.26406828E-01
  4.61425382E-01  1.76111463E-01  1.00000000E+00  1.00000000E+00  1.00000000E+00
  5.14745810E-04  5.97673518E-02 -6.51463262E-02  2.16552780E-01  4.67650498E-01
  4.33942589E-01  1.00000000E+00  1.00000000E+00  1.00000000E+00  1.00000000E+00
  5.14573896E-04  3.97813448E-03  2.04561787E-02  8.01481029E-02  2.34547703E-01
  4.45433686E-01  3.54668425E-01  1.12936881E-01  4.83735142E-01 -1.22922974E+00
  6.72968216E-01  3.49560514E-01  1.00000000E+00  1.00000000E+00  3.35025082E-03
  2.67639704E-02  1.23626824E-01  3.58457879E-01  6.16772964E-01  1.00000000E+00
  1.00000000E+00  1.00000000E+00  1.00000000E+00  1.82658350E-01  9.13291752E-01
  1.00000000E+00  1.00000000E+00  5.14573896E-04  3.97813448E-03  2.04561787E-02
  8.01481029E-02  2.34547703E-01  4.45433686E-01  3.54668425E-01  1.12936881E-01
  4.83735142E-01 -1.22922974E+00  6.72968216E-01  3.49560514E-01  1.00000000E+00
  1.00000000E+00  3.35025082E-03  2.67639704E-02  1.23626824E-01  3.58457879E-01
  6.16772964E-01  1.00000000E+00  1.00000000E+00  1.00000000E+00  1.00000000E+00
  1.82658350E-01  9.13291752E-01  1.00000000E+00  1.00000000E+00  5.14573896E-04
  3.97813448E-03  2.04561787E-02  8.01481029E-02  2.34547703E-01  4.45433686E-01
  3.54668425E-01  1.12936881E-01  4.83735142E-01 -1.22922974E+00  6.72968216E-01
  3.49560514E-01  1.00000000E+00  1.00000000E+00  3.35025082E-03  2.67639704E-02
  1.23626824E-01  3.58457879E-01  6.16772964E-01  1.00000000E+00  1.00000000E+00
  1.00000000E+00  1.00000000E+00  1.82658350E-01  9.13291752E-01  1.00000000E+00
  1.00000000E+00
Coordinates of each shell                  R   N=         177
  0.00000000E+00  0.00000000E+00  0.00000000E+00  0.00000000E+00  0.00000000E+00
  0.00000000E+00  0.00000000E+00  0.00000000E+00  0.00000000E+00  0.00000000E+00
  0.00000000E+00  0.00000000E+00  0.00000000E+00  0.00000000E+00  3.20565581E+00
  0.00000000E+00  0.00000000E+00  3.20565581E+00  0.00000000E+00  0.00000000E+00
  3.20565581E+00  0.00000000E+00  0.00000000E+00  3.20565581E+00  0.00000000E+00
  0.00000000E+00  3.20565581E+00  0.00000000E+00  0.00000000E+00  3.20565581E+00
  0.00000000E+00  0.00000000E+00  3.20565581E+00  0.00000000E+00  0.00000000E+00
  3.20565581E+00  0.00000000E+00  0.00000000E+00  3.20565581E+00  0.00000000E+00
  0.00000000E+00  3.20565581E+00  0.00000000E+00  0.00000000E+00  3.20565581E+00
  0.00000000E+00  0.00000000E+00  3.20565581E+00  0.00000000E+00  0.00000000E+00
  3.20565581E+00  0.00000000E+00  0.00000000E+00  3.20565581E+00  0.00000000E+00
  0.00000000E+00  3.20565581E+00  0.00000000E+00  0.00000000E+00  3.20565581E+00
 -4.72299250E-01 -4.05675066E+00  4.80685855E+00 -4.72299250E-01 -4.05675066E+00
  4.80685855E+00 -4.72299250E-01 -4.05675066E+00  4.80685855E+00 -4.72299250E-01
 -4.05675066E+00  4.80685855E+00 -4.72299250E-01 -4.05675066E+00  4.80685855E+00
 -4.72299250E-01 -4.05675066E+00  4.80685855E+00 -4.72299250E-01 -4.05675066E+00
  4.80685855E+00 -4.72299250E-01 -4.05675066E+00  4.80685855E+00 -4.72299250E-01
 -4.05675066E+00  4.80685855E+00 -4.72299250E-01 -4.05675066E+00  4.80685855E+00
 -4.72299250E-01 -4.05675066E+00  4.80685855E+00 -4.72299250E-01 -4.05675066E+00
  4.80685855E+00 -4.72299250E-01 -4.05675066E+00  4.80685855E+00 -3.27704966E+00
  2.43733096E+00  4.80631053E+00 -3.27704966E+00  2.43733096E+00  4.80631053E+00
 -3.27704966E+00  2.43733096E+00  4.80631053E+00 -3.27704966E+00  2.43733096E+00
  4.80631053E+00 -3.27704966E+00  2.43733096E+00  4.80631053E+00 -3.27704966E+00
  2.43733096E+00  4.80631053E+00 -3.27704966E+00  2.43733096E+00  4.80631053E+00
 -3.27704966E+00  2.43733096E+00  4.80631053E+00 -3.27704966E+00  2.43733096E+00
  4.80631053E+00 -3.27704966E+00  2.43733096E+00  4.80631053E+00 -3.27704966E+00
  2.43733096E+00  4.80631053E+00 -3.27704966E+00  2.43733096E+00  4.80631053E+00
 -3.27704966E+00  2.43733096E+00  4.80631053E+00  3.74957568E+00  1.61917404E+00
  4.80649950E+00  3.74957568E+00  1.61917404E+00  4.80649950E+00  3.74957568E+00
  1.61917404E+00  4.80649950E+00  3.74957568E+00  1.61917404E+00  4.80649950E+00
  3.74957568E+00  1.61917404E+00  4.80649950E+00  3.74957568E+00  1.61917404E+00
  4.80649950E+00  3.74957568E+00  1.61917404E+00  4.80649950E+00  3.74957568E+00
  1.61917404E+00  4.80649950E+00  3.74957568E+00  1.61917404E+00  4.80649950E+00
  3.74957568E+00  1.61917404E+00  4.80649950E+00  3.74957568E+00  1.61917404E+00
  4.80649950E+00  3.74957568E+00  1.61917404E+00  4.80649950E+00  3.74957568E+00
  1.61917404E+00  4.80649950E+00
Num ILSW                                   I              100
ILSW                                       I   N=         100
           0           0           0           0           2           0
           0           0           0           0         402          -1
           5           0           0           0           0           0
           0           0           1           0           0           0
           1           1           0           0           0           0
           0           0      100000           0          -1           0
           0           0           0           0           0           0
           0           0           0           1           0           0
           0 -2000000000           1           0           0           0
           0           0           4          52           0           0
           0           0           5           0           0           0
           0           0           0           0           0           1
           0           0           0           0           0           0
           0           0           0           0           0           0
           0           0           0           0           0           0
           0           0           0           0           0           0
           0           0           0           0
Num RLSW                                   I               52
RLSW                                       R   N=          52
  8.00000000E-01  7.20000000E-01  1.00000000E+00  8.10000000E-01  2.00000000E-01
  0.00000000E+00  0.00000000E+00  1.00000000E+00  0.00000000E+00  0.00000000E+00
  0.00000000E+00  0.00000000E+00  1.00000000E+00  0.00000000E+00  0.00000000E+00
  0.00000000E+00  0.00000000E+00  1.00000000E+00  0.00000000E+00  0.00000000E+00
  0.00000000E+00  0.00000000E+00  1.00000000E+00  0.00000000E+00  0.00000000E+00
  0.00000000E+00  0.00000000E+00  1.00000000E+00  0.00000000E+00  0.00000000E+00
  0.00000000E+00  0.00000000E+00  1.00000000E+00  0.00000000E+00  0.00000000E+00
  0.00000000E+00  0.00000000E+00  0.00000000E+00  1.00000000E+00  1.00000000E+00
  0.00000000E+00  1.00000000E+00  0.00000000E+00  0.00000000E+00  0.00000000E+00
  0.00000000E+00  0.00000000E+00  0.00000000E+00  0.00000000E+00  0.00000000E+00
  0.00000000E+00  0.00000000E+00
ECP-MxAtEC                                 I           250000
ECP-MaxLECP                                I               10
ECP-MaxAtL                                 I          2250000
ECP-MxTECP                                 I         11250000
ECP-LenNCZ                                 I               13
ECP-KFirst                                 I   N=          50
           0           1           0           0           0           0
           2           0           0           0           0           4
           0           0           0           0           8           0
           0           0           0          12           0           0
           0           0           0           0           0           0
           0           0           0           0           0           0
           0           0           0           0           0           0
           0           0           0           0           0           0
           0           0
ECP-KLast                                  I   N=          50
           0           1           0           0           0           0
           3           0           0           0           0           7
           0           0           0           0          11           0
           0           0           0          13           0           0
           0           0           0           0           0           0
           0           0           0           0           0           0
           0           0           0           0           0           0
           0           0           0           0           0           0
           0           0
ECP-LMax                                   I   N=           5
           0           4           0           0           0
ECP-LPSkip                                 I   N=           5
           1           0           1           1           1
ECP-RNFroz                                 R   N=           5
  0.00000000E+00  2.80000000E+01  0.00000000E+00  0.00000000E+00  0.00000000E+00
ECP-NLP                                    I   N=          13
           2           2           2           2           2           2
           2           2           2           2           2           2
           2
ECP-CLP1                                   R   N=          13
  0.00000000E+00  2.79988682E+02  6.23778100E+01  6.61625230E+01  1.32174396E+02
  1.63394170E+01  3.24889590E+01  3.63874410E+01  5.45078410E+01  8.69682300E+00
  1.28402080E+01 -1.25763330E+01 -1.65959440E+01
ECP-CLP2                                   R   N=          13
  0.00000000E+00  0.00000000E+00  0.00000000E+00 -1.32325045E+02  1.32174396E+02
 -3.26788330E+01  3.24889590E+01 -3.63874410E+01  3.63385610E+01 -8.69682300E+00
  8.56013900E+00  8.38422200E+00 -8.29797200E+00
ECP-ZLP                                    R   N=          13
  1.00000000E+00  1.74204140E+01  7.63115500E+00  1.61310240E+01  1.56280770E+01
  7.32560800E+00  6.94251900E+00  1.55149760E+01  1.51881600E+01  5.45602400E+00
  5.36310500E+00  1.22823480E+01  1.22721500E+01
MxBond                                     I                4
NBond                                      I   N=           5
           1           4           1           1           1
IBond                                      I   N=          20
           2           0           0           0           1           3
           4           5           2           0           0           0
           2           0           0           0           2           0
           0           0
RBond                                      R   N=          20
  1.00000000E+00  0.00000000E+00  0.00000000E+00  0.00000000E+00  1.00000000E+00
  1.00000000E+00  1.00000000E+00  1.00000000E+00  1.00000000E+00  0.00000000E+00
  0.00000000E+00  0.00000000E+00  1.00000000E+00  0.00000000E+00  0.00000000E+00
  0.00000000E+00  1.00000000E+00  0.00000000E+00  0.00000000E+00  0.00000000E+00
Virial Ratio                               R      2.091507299553711E+00
SCF Energy                                 R     -1.595790487424284E+03
Total Energy                               R     -1.595790487424284E+03
RMS Density                                R      5.309122265510119E-09
Job Status                                 I                1
Nuclear derivative order                   I                0
External E-field                           R   N=          35
  0.00000000E+00  0.00000000E+00  0.00000000E+00  0.00000000E+00  0.00000000E+00
  0.00000000E+00  0.00000000E+00  0.00000000E+00  0.00000000E+00  0.00000000E+00
  0.00000000E+00  0.00000000E+00  0.00000000E+00  0.00000000E+00  0.00000000E+00
  0.00000000E+00  0.00000000E+00  0.00000000E+00  0.00000000E+00  0.00000000E+00
  0.00000000E+00  0.00000000E+00  0.00000000E+00  0.00000000E+00  0.00000000E+00
  0.00000000E+00  0.00000000E+00  0.00000000E+00  0.00000000E+00  0.00000000E+00
  0.00000000E+00  0.00000000E+00  0.00000000E+00  0.00000000E+00  0.00000000E+00
IOpCl                                      I                0
IROHF                                      I                0
Alpha Orbital Energies                     R   N=         167
 -1.01534131E+02 -1.01534119E+02 -1.01534115E+02 -9.46674635E+00 -9.46673289E+00
 -9.46672831E+00 -7.22635500E+00 -7.22634181E+00 -7.22633712E+00 -7.22054835E+00
 -7.22053492E+00 -7.22053033E+00 -7.22046750E+00 -7.22045417E+00 -7.22044960E+00
 -5.18029548E+00 -3.52188294E+00 -3.52188162E+00 -3.51878210E+00 -1.10846728E+00
 -1.10846455E+00 -1.10457309E+00 -1.10120552E+00 -1.10120451E+00 -8.43029205E-01
 -8.19334217E-01 -8.19319081E-01 -5.45188053E-01 -4.09427712E-01 -4.03943728E-01
 -4.03931354E-01 -3.49362258E-01 -3.49359553E-01 -3.39669183E-01 -3.39660347E-01
 -3.38914416E-01 -3.34658135E-01 -1.01932978E-01 -3.14213976E-02 -3.14033995E-02
  2.89875723E-02  7.30278050E-02  8.59514322E-02  8.59572279E-02  1.14168583E-01
  1.60399985E-01  1.60403769E-01  1.93382250E-01  1.93385988E-01  2.22397891E-01
  2.79203646E-01  3.04893846E-01  3.17044396E-01  3.17047258E-01  3.28030254E-01
  3.28031514E-01  3.31917809E-01  3.45175997E-01  3.45186230E-01  3.96807971E-01
  4.07487072E-01  4.07498619E-01  4.33018414E-01  4.48713978E-01  4.48718473E-01
  4.62913920E-01  4.70411706E-01  4.70417972E-01  4.96662329E-01  5.02422771E-01
  5.02431338E-01  5.36173059E-01  5.83467337E-01  5.86560910E-01  5.86568008E-01
  7.14748994E-01  7.59604534E-01  7.59633420E-01  8.45862937E-01  8.45896501E-01
  9.03914484E-01  9.06393903E-01  9.06409243E-01  9.14358557E-01  9.29710489E-01
  1.00068178E+00  1.00069054E+00  1.02725940E+00  1.07317985E+00  1.07319216E+00
  1.16879634E+00  1.26651409E+00  1.26655429E+00  1.62671563E+00  1.62672016E+00
  1.71576347E+00  1.72308576E+00  1.72309428E+00  1.74325452E+00  1.74529370E+00
  1.74529907E+00  1.77831805E+00  1.78732637E+00  1.80000608E+00  1.80000655E+00
  1.86878673E+00  1.87476303E+00  1.87476950E+00  1.90112064E+00  1.90112577E+00
  1.97424864E+00  2.03843530E+00  2.03844370E+00  2.03950684E+00  2.05381182E+00
  2.06056175E+00  2.06056758E+00  2.06772203E+00  2.06773436E+00  2.06868389E+00
  2.06869544E+00  2.06886195E+00  2.08409254E+00  2.09636179E+00  2.09731349E+00
  2.09733178E+00  2.11187066E+00  2.16407449E+00  2.16408837E+00  2.18466353E+00
  2.18466880E+00  2.20542742E+00  2.22163637E+00  2.23185089E+00  2.23185486E+00
  2.23244463E+00  2.27218259E+00  2.28865332E+00  2.28867705E+00  2.51442975E+00
  2.52462747E+00  2.52467064E+00  2.54286749E+00  2.56777306E+00  2.56780373E+00
  2.61477104E+00  2.77137012E+00  2.77995280E+00  2.77999669E+00  3.72527690E+00
  1.06506880E+01  1.06506886E+01  1.06876492E+01  1.06895874E+01  1.06895885E+01
  1.06989116E+01  1.08472374E+01  1.08673770E+01  1.08674034E+01  2.48694988E+01
  2.48695908E+01  2.49386392E+01  3.63790733E+01  3.68254571E+01  3.68255369E+01
  3.68266536E+01  1.12811399E+02
Alpha MO coefficients                      R   N=       27889
 -1.89119860E-05  1.21090833E-04  3.30440879E-05 -7.22372353E-06  5.44651028E-06
  4.60418635E-06  7.15775333E-05 -9.86441143E-05  1.36539501E-04 -2.10148046E-04
 -1.20275254E-04  1.28144957E-03  1.29847848E-06 -9.79945033E-07 -1.42872339E-06
  4.82990886E-06 -3.64508792E-06 -5.42989830E-06  1.63602038E-04 -1.23369146E-04
 -7.08986297E-05 -1.14475505E-03  8.63318784E-04  5.87348618E-04 -1.57621925E-04
  1.18867118E-04  9.52623914E-05  1.11140782E-05  1.08280261E-05 -8.16750891E-06
 -7.12308181E-06  2.31525728E-05 -4.75683933E-05 -4.07133628E-05  3.07118008E-05
  2.89809408E-05 -9.41947759E-05 -2.48566505E-04 -4.38609075E-04  3.30764340E-04
  1.65080533E-04 -5.36546103E-04 -4.77427346E-05  4.09087624E-05 -3.08540275E-05
  4.09712945E-05 -1.33165379E-04  3.59061026E-05  9.90734212E-05 -5.12964122E-06
 -4.41914885E-06  3.33341051E-06 -3.26244310E-06  1.06043230E-05  5.14591854E-07
  1.42113179E-06  2.18583668E-02 -7.12306001E-04 -2.37581185E-04  9.16384782E-05
  3.42220035E-05  8.71156563E-07 -3.25492791E-07 -9.13335169E-07 -3.35325946E-06
  5.45256076E-06  2.15161725E-06  1.01146033E-05 -1.86499981E-05 -4.61589621E-06
 -2.76294300E-05  5.53249803E-05  5.69846585E-06  9.16738712E-05 -1.78074015E-05
 -4.22995873E-05 -7.25063447E-06 -9.29880599E-06  3.98036479E-06 -1.66799165E-06
 -2.06710274E-05  1.61461064E-05  2.51859954E-05 -1.24292828E-05 -1.14706682E-06
  5.47991415E-05 -3.63851157E-06 -5.27821942E-06  1.75078683E-06  2.02909132E-07
  7.20340870E-06 -4.44545897E-06  8.36289278E-07  9.99575380E-01 -3.24045154E-02
 -1.05171843E-02  4.02090101E-03 -3.61884341E-03  5.16611948E-05 -3.84310886E-05
 -2.60746725E-05 -7.23120116E-05  5.38206385E-05  3.51592695E-05  1.25223794E-04
 -9.32547608E-05 -5.99773921E-05 -1.34484859E-04  1.00351801E-04  6.68289830E-05
 -8.48256919E-04  6.30004601E-04  3.84433905E-04 -4.02162470E-05 -5.26808938E-05
  3.92753622E-05  2.59062481E-05 -8.56960158E-05  1.37976689E-04  1.86516957E-04
 -1.38978637E-04 -9.07163213E-05  3.00585702E-04 -2.26511443E-05  8.98480657E-06
 -6.63036209E-06  8.49854038E-06 -2.84814282E-05  1.08094860E-05  2.99270775E-05
  2.93851013E-02 -9.56276013E-04 -3.16704617E-04  1.21849215E-04  6.20183276E-06
  1.10536887E-07 -9.44347202E-07 -1.10726476E-06 -5.53477953E-06  1.96198163E-06
  2.40706299E-06  1.96035869E-05 -4.93928265E-06 -5.04574378E-06 -5.95209623E-05
  1.14578319E-05  6.17544018E-06  5.10957617E-05 -8.01278743E-05 -3.90107626E-05
 -7.50241543E-06 -6.03175007E-06  8.04415675E-06  1.33806950E-05 -1.59200676E-05
  1.70747049E-05  1.75167586E-05 -2.14870354E-05 -3.12457054E-05  4.48046595E-05
 -3.78557607E-06 -3.28229972E-06  4.55808057E-06 -4.02675759E-06  6.09878826E-06
  4.06549505E-06 -1.98053150E-06 -1.87850180E-05  1.20244312E-04  3.28676016E-05
  8.65660095E-06  2.78089905E-06  4.56711146E-06  7.10840070E-05 -9.79635422E-05
  1.35586594E-04 -2.08654746E-04 -1.19604744E-04  1.27255275E-03 -1.55329923E-06
 -5.00013525E-07 -1.41776297E-06 -5.77534644E-06 -1.85910888E-06 -5.38730883E-06
 -1.95917281E-04 -6.29644308E-05 -7.04591030E-05  1.37030535E-03  4.40471685E-04
  5.83336295E-04  1.88732784E-04  6.06660026E-05  9.46485034E-05  1.10364326E-05
 -1.29647140E-05 -4.16881979E-06 -1.48895709E-05 -1.92300413E-05 -4.72195065E-05
  4.87202678E-05  1.56678531E-05  6.05548347E-05  7.82045803E-05 -2.46845434E-04
  5.25093540E-04  1.68770728E-04  3.45042094E-04  4.45597649E-04 -4.74478005E-05
 -4.89729313E-05 -1.57452908E-05  8.56533596E-05  1.10620319E-04  3.56875465E-05
  9.84124483E-05 -5.08166324E-06  5.29397570E-06  1.70234479E-06 -6.82727562E-06
 -8.81854782E-06  5.06554279E-07  1.39598273E-06  7.78755228E-02 -2.52804996E-03
 -8.26489995E-04  3.16753225E-04 -1.75916825E-04 -5.46906796E-07  3.57824275E-06
 -2.35354589E-06  4.11489370E-06 -9.58547772E-07  4.03610769E-06 -1.36849097E-05
 -5.71763660E-06 -7.77213559E-06  4.01002517E-05  3.43692269E-05  9.18398323E-06
 -1.05780990E-04 -5.54888178E-05 -1.74928888E-05 -9.09454709E-06  1.00774225E-05
 -2.26428891E-06  2.82888744E-06  2.16453743E-05  2.30351011E-05 -2.73099424E-05
  7.75622479E-06 -7.83462755E-06 -5.59098433E-05 -4.70665812E-06  5.92511051E-06
  1.01741115E-06 -4.70860929E-06 -6.57154774E-06  4.83371619E-06 -5.33220604E-07
 -3.10013231E-02  1.00114531E-03  3.18243500E-04 -1.20849630E-04  2.31027891E-04
 -3.48470969E-06  1.52427436E-06  4.48359657E-07  1.03713320E-05 -3.03131657E-06
  3.62216491E-07 -2.82530002E-05  6.59260533E-06 -1.61274929E-06  6.99056725E-05
 -1.20230569E-05  2.38754642E-06 -1.28610676E-05 -1.00327820E-04 -6.50195280E-05
 -5.42216705E-06  1.07425571E-05  3.46336800E-06  1.62601235E-05  1.33413837E-05
  9.46017165E-06 -3.29360140E-05 -6.75071508E-06 -3.91184180E-05 -4.44077124E-05
 -2.59057082E-06  3.54033604E-06  3.79046387E-06 -6.42371483E-06 -1.85760446E-06
 -4.81255851E-06 -8.88059697E-07  9.96727889E-01 -3.23121780E-02 -1.04871721E-02
  4.00936227E-03 -3.60872334E-03 -5.89851604E-05 -2.53596206E-05 -2.59991173E-05
  8.27120586E-05  3.52322456E-05  3.50518161E-05 -1.43526163E-04 -6.04862449E-05
 -5.97873249E-05  1.55271510E-04  6.29124105E-05  6.66045149E-05  9.63125737E-04
  4.27294583E-04  3.83550469E-04 -4.00724973E-05  6.06061376E-05  2.49851692E-05
  5.95478836E-05  6.65747474E-05  1.37515513E-04 -2.14173936E-04 -8.92499719E-05
 -2.10379736E-04 -2.32035119E-04 -2.25733885E-05 -9.97411012E-06 -4.97300819E-06
  2.08963880E-05  2.10279073E-05  1.03466850E-05  3.00024403E-05 -1.61874205E-05
  1.03586037E-04  2.83550076E-05 -1.59725195E-06 -9.61336775E-06  3.93333758E-06
  6.12353720E-05 -8.43906569E-05  1.16798260E-04 -1.79734867E-04 -1.03068934E-04
  1.09621059E-03  2.86617310E-07  1.72369050E-06 -1.22070361E-06  1.06558215E-06
  6.40839670E-06 -4.63841968E-06  3.61314138E-05  2.17396772E-04 -6.07317364E-05
 -2.52712525E-04 -1.52046598E-03  5.02648724E-04 -3.48115345E-05 -2.09431688E-04
  8.15736989E-05  9.50427103E-06  2.39200969E-06  1.43908839E-05  2.56098921E-05
 -4.74034100E-06 -4.06621612E-05 -8.98865700E-06 -5.40770827E-05 -1.04144284E-04
  1.92763880E-05 -2.12587161E-04 -9.68491481E-05 -5.82725206E-04 -5.93418751E-04
  1.09831317E-04 -4.08931570E-05  9.02839578E-06  5.43134553E-05 -1.47344035E-04
  2.72736550E-05  3.07214375E-05  8.47764211E-05 -4.37256948E-06 -9.76477089E-07
 -5.87471339E-06  1.17458165E-05 -2.17467936E-06  4.35266146E-07  1.20071263E-06
  9.96970177E-01 -3.23195101E-02 -1.04886477E-02  4.00980044E-03 -3.62551703E-03
  7.50662927E-06  6.40084276E-05 -2.59635385E-05 -1.07513757E-05 -9.02667994E-05