SnMe3_new_1 0.0                                                         
SP        RB3LYP                                                      6-31G(d)            
Number of atoms                            I               16
Info1-9                                    I   N=           9
          25          25           0           0           0         110
           1          18        -502
Full Title                                 C   N=           2
SnMe3_new_1 0.0         
Route                                      C   N=           2
# nosymm b3lyp/6-31G*   
Charge                                     I                0
Multiplicity                               I                1
Number of electrons                        I               36
Number of alpha electrons                  I               18
Number of beta electrons                   I               18
Number of basis functions                  I               84
Number of independent functions            I               84
Number of point charges in /Mol/           I                0
Number of translation vectors              I                0
Atomic numbers                             I   N=          16
           6           1           1           1           6           1
           1           1           6           1           1           1
           6           1           1           1
Nuclear charges                            R   N=          16
  6.00000000E+00  1.00000000E+00  1.00000000E+00  1.00000000E+00  6.00000000E+00
  1.00000000E+00  1.00000000E+00  1.00000000E+00  6.00000000E+00  1.00000000E+00
  1.00000000E+00  1.00000000E+00  6.00000000E+00  1.00000000E+00  1.00000000E+00
  1.00000000E+00
Current cartesian coordinates              R   N=          48
  0.00000000E+00  0.00000000E+00  0.00000000E+00 -1.77538741E+00 -7.64407634E-01
 -7.10894767E-01  2.25545408E-01  1.91968898E+00 -7.11138768E-01  1.54955968E+00
 -1.15521959E+00 -7.11377157E-01 -3.09499245E+00  2.30415036E+00  5.45626975E+00
 -2.89190277E+00  4.23936606E+00  4.78142684E+00 -4.89076551E+00  1.55373989E+00
  4.78263506E+00 -3.11567884E+00  2.32049413E+00  7.51563848E+00  3.54305486E+00
  1.52756639E+00  5.45670150E+00  5.11715413E+00  3.83510695E-01  4.78210070E+00
  3.79170174E+00  3.45780979E+00  4.78284094E+00  3.56733584E+00  1.53755718E+00
  7.51608572E+00 -4.48590879E-01 -3.83232533E+00  5.45627692E+00 -2.22836450E+00
 -4.62211259E+00  4.78518454E+00  1.09652107E+00 -5.01365166E+00  4.77890704E+00
 -4.47886578E-01 -3.85892882E+00  7.51564016E+00
Number of symbols in /Mol/                 I                0
Force Field                                I                0
Atom Types                                 C   N=          16
                                                            
                                                            
                                                            
            
Int Atom Types                             I   N=          16
           0           0           0           0           0           0
           0           0           0           0           0           0
           0           0           0           0
MM charges                                 R   N=          16
  0.00000000E+00  0.00000000E+00  0.00000000E+00  0.00000000E+00  0.00000000E+00
  0.00000000E+00  0.00000000E+00  0.00000000E+00  0.00000000E+00  0.00000000E+00
  0.00000000E+00  0.00000000E+00  0.00000000E+00  0.00000000E+00  0.00000000E+00
  0.00000000E+00
Integer atomic weights                     I   N=          16
          12           1           1           1          12           1
           1           1          12           1           1           1
          12           1           1           1
Real atomic weights                        R   N=          16
  1.20000000E+01  1.00782504E+00  1.00782504E+00  1.00782504E+00  1.20000000E+01
  1.00782504E+00  1.00782504E+00  1.00782504E+00  1.20000000E+01  1.00782504E+00
  1.00782504E+00  1.00782504E+00  1.20000000E+01  1.00782504E+00  1.00782504E+00
  1.00782504E+00
Atom fragment info                         I   N=          16
           0           0           0           0           0           0
           0           0           0           0           0           0
           0           0           0           0
Atom residue num                           I   N=          16
           0           0           0           0           0           0
           0           0           0           0           0           0
           0           0           0           0
Nuclear spins                              I   N=          16
           0           1           1           1           0           1
           1           1           0           1           1           1
           0           1           1           1
Nuclear ZEff                               R   N=          16
 -3.60000000E+00 -1.00000000E+00 -1.00000000E+00 -1.00000000E+00 -3.60000000E+00
 -1.00000000E+00 -1.00000000E+00 -1.00000000E+00 -3.60000000E+00 -1.00000000E+00
 -1.00000000E+00 -1.00000000E+00 -3.60000000E+00 -1.00000000E+00 -1.00000000E+00
 -1.00000000E+00
Nuclear ZNuc                               R   N=          16
  6.00000000E+00  1.00000000E+00  1.00000000E+00  1.00000000E+00  6.00000000E+00
  1.00000000E+00  1.00000000E+00  1.00000000E+00  6.00000000E+00  1.00000000E+00
  1.00000000E+00  1.00000000E+00  6.00000000E+00  1.00000000E+00  1.00000000E+00
  1.00000000E+00
Nuclear QMom                               R   N=          16
  0.00000000E+00  0.00000000E+00  0.00000000E+00  0.00000000E+00  0.00000000E+00
  0.00000000E+00  0.00000000E+00  0.00000000E+00  0.00000000E+00  0.00000000E+00
  0.00000000E+00  0.00000000E+00  0.00000000E+00  0.00000000E+00  0.00000000E+00
  0.00000000E+00
Nuclear GFac                               R   N=          16
  0.00000000E+00  2.79284600E+00  2.79284600E+00  2.79284600E+00  0.00000000E+00
  2.79284600E+00  2.79284600E+00  2.79284600E+00  0.00000000E+00  2.79284600E+00
  2.79284600E+00  2.79284600E+00  0.00000000E+00  2.79284600E+00  2.79284600E+00
  2.79284600E+00
MicOpt                                     I   N=          16
          -1          -1          -1          -1          -1          -1
          -1          -1          -1          -1          -1          -1
          -1          -1          -1          -1
Number of residues                         I                0
Number of secondary structures             I                0
Number of contracted shells                I               40
Number of primitive shells                 I               92
Pure/Cartesian d shells                    I                1
Pure/Cartesian f shells                    I                0
Highest angular momentum                   I                2
Largest degree of contraction              I                6
Shell types                                I   N=          40
           0          -1          -1           2           0           0
           0           0           0           0           0          -1
          -1           2           0           0           0           0
           0           0           0          -1          -1           2
           0           0           0           0           0           0
           0          -1          -1           2           0           0
           0           0           0           0
Number of primitives per shell             I   N=          40
           6           3           1           1           3           1
           3           1           3           1           6           3
           1           1           3           1           3           1
           3           1           6           3           1           1
           3           1           3           1           3           1
           6           3           1           1           3           1
           3           1           3           1
Shell to atom map                          I   N=          40
           1           1           1           1           2           2
           3           3           4           4           5           5
           5           5           6           6           7           7
           8           8           9           9           9           9
          10          10          11          11          12          12
          13          13          13          13          14          14
          15          15          16          16
Primitive exponents                        R   N=          92
  3.04752488E+03  4.57369518E+02  1.03948685E+02  2.92101553E+01  9.28666296E+00
  3.16392696E+00  7.86827235E+00  1.88128854E+00  5.44249258E-01  1.68714478E-01
  8.00000000E-01  1.87311370E+01  2.82539436E+00  6.40121692E-01  1.61277759E-01
  1.87311370E+01  2.82539436E+00  6.40121692E-01  1.61277759E-01  1.87311370E+01
  2.82539436E+00  6.40121692E-01  1.61277759E-01  3.04752488E+03  4.57369518E+02
  1.03948685E+02  2.92101553E+01  9.28666296E+00  3.16392696E+00  7.86827235E+00
  1.88128854E+00  5.44249258E-01  1.68714478E-01  8.00000000E-01  1.87311370E+01
  2.82539436E+00  6.40121692E-01  1.61277759E-01  1.87311370E+01  2.82539436E+00
  6.40121692E-01  1.61277759E-01  1.87311370E+01  2.82539436E+00  6.40121692E-01
  1.61277759E-01  3.04752488E+03  4.57369518E+02  1.03948685E+02  2.92101553E+01
  9.28666296E+00  3.16392696E+00  7.86827235E+00  1.88128854E+00  5.44249258E-01
  1.68714478E-01  8.00000000E-01  1.87311370E+01  2.82539436E+00  6.40121692E-01
  1.61277759E-01  1.87311370E+01  2.82539436E+00  6.40121692E-01  1.61277759E-01
  1.87311370E+01  2.82539436E+00  6.40121692E-01  1.61277759E-01  3.04752488E+03
  4.57369518E+02  1.03948685E+02  2.92101553E+01  9.28666296E+00  3.16392696E+00
  7.86827235E+00  1.88128854E+00  5.44249258E-01  1.68714478E-01  8.00000000E-01
  1.87311370E+01  2.82539436E+00  6.40121692E-01  1.61277759E-01  1.87311370E+01
  2.82539436E+00  6.40121692E-01  1.61277759E-01  1.87311370E+01  2.82539436E+00
  6.40121692E-01  1.61277759E-01
Contraction coefficients                   R   N=          92
  1.83473713E-03  1.40373228E-02  6.88426223E-02  2.32184443E-01  4.67941348E-01
  3.62311985E-01 -1.19332420E-01 -1.60854152E-01  1.14345644E+00  1.00000000E+00
  1.00000000E+00  3.34946043E-02  2.34726953E-01  8.13757326E-01  1.00000000E+00
  3.34946043E-02  2.34726953E-01  8.13757326E-01  1.00000000E+00  3.34946043E-02
  2.34726953E-01  8.13757326E-01  1.00000000E+00  1.83473713E-03  1.40373228E-02
  6.88426223E-02  2.32184443E-01  4.67941348E-01  3.62311985E-01 -1.19332420E-01
 -1.60854152E-01  1.14345644E+00  1.00000000E+00  1.00000000E+00  3.34946043E-02
  2.34726953E-01  8.13757326E-01  1.00000000E+00  3.34946043E-02  2.34726953E-01
  8.13757326E-01  1.00000000E+00  3.34946043E-02  2.34726953E-01  8.13757326E-01
  1.00000000E+00  1.83473713E-03  1.40373228E-02  6.88426223E-02  2.32184443E-01
  4.67941348E-01  3.62311985E-01 -1.19332420E-01 -1.60854152E-01  1.14345644E+00
  1.00000000E+00  1.00000000E+00  3.34946043E-02  2.34726953E-01  8.13757326E-01
  1.00000000E+00  3.34946043E-02  2.34726953E-01  8.13757326E-01  1.00000000E+00
  3.34946043E-02  2.34726953E-01  8.13757326E-01  1.00000000E+00  1.83473713E-03
  1.40373228E-02  6.88426223E-02  2.32184443E-01  4.67941348E-01  3.62311985E-01
 -1.19332420E-01 -1.60854152E-01  1.14345644E+00  1.00000000E+00  1.00000000E+00
  3.34946043E-02  2.34726953E-01  8.13757326E-01  1.00000000E+00  3.34946043E-02
  2.34726953E-01  8.13757326E-01  1.00000000E+00  3.34946043E-02  2.34726953E-01
  8.13757326E-01  1.00000000E+00
P(S=P) Contraction coefficients            R   N=          92
  0.00000000E+00  0.00000000E+00  0.00000000E+00  0.00000000E+00  0.00000000E+00
  0.00000000E+00  6.89990666E-02  3.16423961E-01  7.44308291E-01  1.00000000E+00
  0.00000000E+00  0.00000000E+00  0.00000000E+00  0.00000000E+00  0.00000000E+00
  0.00000000E+00  0.00000000E+00  0.00000000E+00  0.00000000E+00  0.00000000E+00
  0.00000000E+00  0.00000000E+00  0.00000000E+00  0.00000000E+00  0.00000000E+00
  0.00000000E+00  0.00000000E+00  0.00000000E+00  0.00000000E+00  6.89990666E-02
  3.16423961E-01  7.44308291E-01  1.00000000E+00  0.00000000E+00  0.00000000E+00
  0.00000000E+00  0.00000000E+00  0.00000000E+00  0.00000000E+00  0.00000000E+00
  0.00000000E+00  0.00000000E+00  0.00000000E+00  0.00000000E+00  0.00000000E+00
  0.00000000E+00  0.00000000E+00  0.00000000E+00  0.00000000E+00  0.00000000E+00
  0.00000000E+00  0.00000000E+00  6.89990666E-02  3.16423961E-01  7.44308291E-01
  1.00000000E+00  0.00000000E+00  0.00000000E+00  0.00000000E+00  0.00000000E+00
  0.00000000E+00  0.00000000E+00  0.00000000E+00  0.00000000E+00  0.00000000E+00
  0.00000000E+00  0.00000000E+00  0.00000000E+00  0.00000000E+00  0.00000000E+00
  0.00000000E+00  0.00000000E+00  0.00000000E+00  0.00000000E+00  0.00000000E+00
  6.89990666E-02  3.16423961E-01  7.44308291E-01  1.00000000E+00  0.00000000E+00
  0.00000000E+00  0.00000000E+00  0.00000000E+00  0.00000000E+00  0.00000000E+00
  0.00000000E+00  0.00000000E+00  0.00000000E+00  0.00000000E+00  0.00000000E+00
  0.00000000E+00  0.00000000E+00
Coordinates of each shell                  R   N=         120
  0.00000000E+00  0.00000000E+00  0.00000000E+00  0.00000000E+00  0.00000000E+00
  0.00000000E+00  0.00000000E+00  0.00000000E+00  0.00000000E+00  0.00000000E+00
  0.00000000E+00  0.00000000E+00 -1.77538741E+00 -7.64407634E-01 -7.10894767E-01
 -1.77538741E+00 -7.64407634E-01 -7.10894767E-01  2.25545408E-01  1.91968898E+00
 -7.11138768E-01  2.25545408E-01  1.91968898E+00 -7.11138768E-01  1.54955968E+00
 -1.15521959E+00 -7.11377157E-01  1.54955968E+00 -1.15521959E+00 -7.11377157E-01
 -3.09499245E+00  2.30415036E+00  5.45626975E+00 -3.09499245E+00  2.30415036E+00
  5.45626975E+00 -3.09499245E+00  2.30415036E+00  5.45626975E+00 -3.09499245E+00
  2.30415036E+00  5.45626975E+00 -2.89190277E+00  4.23936606E+00  4.78142684E+00
 -2.89190277E+00  4.23936606E+00  4.78142684E+00 -4.89076551E+00  1.55373989E+00
  4.78263506E+00 -4.89076551E+00  1.55373989E+00  4.78263506E+00 -3.11567884E+00
  2.32049413E+00  7.51563848E+00 -3.11567884E+00  2.32049413E+00  7.51563848E+00
  3.54305486E+00  1.52756639E+00  5.45670150E+00  3.54305486E+00  1.52756639E+00
  5.45670150E+00  3.54305486E+00  1.52756639E+00  5.45670150E+00  3.54305486E+00
  1.52756639E+00  5.45670150E+00  5.11715413E+00  3.83510695E-01  4.78210070E+00
  5.11715413E+00  3.83510695E-01  4.78210070E+00  3.79170174E+00  3.45780979E+00
  4.78284094E+00  3.79170174E+00  3.45780979E+00  4.78284094E+00  3.56733584E+00
  1.53755718E+00  7.51608572E+00  3.56733584E+00  1.53755718E+00  7.51608572E+00
 -4.48590879E-01 -3.83232533E+00  5.45627692E+00 -4.48590879E-01 -3.83232533E+00
  5.45627692E+00 -4.48590879E-01 -3.83232533E+00  5.45627692E+00 -4.48590879E-01
 -3.83232533E+00  5.45627692E+00 -2.22836450E+00 -4.62211259E+00  4.78518454E+00
 -2.22836450E+00 -4.62211259E+00  4.78518454E+00  1.09652107E+00 -5.01365166E+00
  4.77890704E+00  1.09652107E+00 -5.01365166E+00  4.77890704E+00 -4.47886578E-01
 -3.85892882E+00  7.51564016E+00 -4.47886578E-01 -3.85892882E+00  7.51564016E+00
Num ILSW                                   I              100
ILSW                                       I   N=         100
           0           1           0           0           2           0
           0           0           0           0         402          -1
           5           0           0           0           0           0
           0           0           1           0           0           0
           1           1           0           0           0           0
           0           0      100000           0          -1           0
           0           0           0           0           0           0
           0           0           0           1           0           0
           0 -2000000000           1           0           0           0
           0           0           4          52           0           0
           0           0           5           0           0           0
           0           0           0           0           0           1
           0           0           0           0           0           0
           0           0           0           0           0           0
           0           0           0           0           0           0
           0           0           0           0           0           0
           0           0           0           0
Num RLSW                                   I               52
RLSW                                       R   N=          52
  8.00000000E-01  7.20000000E-01  1.00000000E+00  8.10000000E-01  2.00000000E-01
  0.00000000E+00  0.00000000E+00  1.00000000E+00  0.00000000E+00  0.00000000E+00
  0.00000000E+00  0.00000000E+00  1.00000000E+00  0.00000000E+00  0.00000000E+00
  0.00000000E+00  0.00000000E+00  1.00000000E+00  0.00000000E+00  0.00000000E+00
  0.00000000E+00  0.00000000E+00  1.00000000E+00  0.00000000E+00  0.00000000E+00
  0.00000000E+00  0.00000000E+00  1.00000000E+00  0.00000000E+00  0.00000000E+00
  0.00000000E+00  0.00000000E+00  1.00000000E+00  0.00000000E+00  0.00000000E+00
  0.00000000E+00  0.00000000E+00  0.00000000E+00  1.00000000E+00  1.00000000E+00
  0.00000000E+00  1.00000000E+00  0.00000000E+00  0.00000000E+00  0.00000000E+00
  0.00000000E+00  0.00000000E+00  0.00000000E+00  0.00000000E+00  0.00000000E+00
  0.00000000E+00  0.00000000E+00
MxBond                                     I                3
NBond                                      I   N=          16
           3           1           1           1           3           1
           1           1           3           1           1           1
           3           1           1           1
IBond                                      I   N=          48
           2           3           4           1           0           0
           1           0           0           1           0           0
           6           7           8           5           0           0
           5           0           0           5           0           0
          10          11          12           9           0           0
           9           0           0           9           0           0
          14          15          16          13           0           0
          13           0           0          13           0           0
RBond                                      R   N=          48
  1.00000000E+00  1.00000000E+00  1.00000000E+00  1.00000000E+00  0.00000000E+00
  0.00000000E+00  1.00000000E+00  0.00000000E+00  0.00000000E+00  1.00000000E+00
  0.00000000E+00  0.00000000E+00  1.00000000E+00  1.00000000E+00  1.00000000E+00
  1.00000000E+00  0.00000000E+00  0.00000000E+00  1.00000000E+00  0.00000000E+00
  0.00000000E+00  1.00000000E+00  0.00000000E+00  0.00000000E+00  1.00000000E+00
  1.00000000E+00  1.00000000E+00  1.00000000E+00  0.00000000E+00  0.00000000E+00
  1.00000000E+00  0.00000000E+00  0.00000000E+00  1.00000000E+00  0.00000000E+00
  0.00000000E+00  1.00000000E+00  1.00000000E+00  1.00000000E+00  1.00000000E+00
  0.00000000E+00  0.00000000E+00  1.00000000E+00  0.00000000E+00  0.00000000E+00
  1.00000000E+00  0.00000000E+00  0.00000000E+00
Virial Ratio                               R      2.011048086705911E+00
SCF Energy                                 R     -1.591996779482606E+02
Total Energy                               R     -1.591996779482606E+02
RMS Density                                R      1.892646052821487E-09
Job Status                                 I                1
Nuclear derivative order                   I                0
External E-field                           R   N=          35
  0.00000000E+00  0.00000000E+00  0.00000000E+00  0.00000000E+00  0.00000000E+00
  0.00000000E+00  0.00000000E+00  0.00000000E+00  0.00000000E+00  0.00000000E+00
  0.00000000E+00  0.00000000E+00  0.00000000E+00  0.00000000E+00  0.00000000E+00
  0.00000000E+00  0.00000000E+00  0.00000000E+00  0.00000000E+00  0.00000000E+00
  0.00000000E+00  0.00000000E+00  0.00000000E+00  0.00000000E+00  0.00000000E+00
  0.00000000E+00  0.00000000E+00  0.00000000E+00  0.00000000E+00  0.00000000E+00
  0.00000000E+00  0.00000000E+00  0.00000000E+00  0.00000000E+00  0.00000000E+00
IOpCl                                      I                0
IROHF                                      I                0
Alpha Orbital Energies                     R   N=          84
 -1.01971257E+01 -1.01971208E+01 -1.01971191E+01 -1.01971142E+01 -6.68360726E-01
 -6.63465840E-01 -6.62868881E-01 -6.62866420E-01 -3.92595020E-01 -3.91755922E-01
 -3.91753432E-01 -3.90229485E-01 -3.89112347E-01 -3.84724865E-01 -3.84721612E-01
 -3.83893306E-01 -2.11781531E-01 -1.59558198E-01 -1.25186852E-01 -1.25183193E-01
  1.00376661E-01  1.44887124E-01  1.44941460E-01  1.44947942E-01  1.73967791E-01
  1.74243209E-01  1.74249958E-01  1.87991776E-01  1.88786900E-01  2.00878995E-01
  2.00881456E-01  2.01224516E-01  4.65443504E-01  4.72063551E-01  4.72067330E-01
  4.72563875E-01  4.95357722E-01  4.95715836E-01  6.87296949E-01  6.87957947E-01
  6.87977289E-01  7.03798718E-01  7.03879680E-01  7.03890212E-01  8.37744966E-01
  8.64290150E-01  8.65942942E-01  8.65955335E-01  9.15188900E-01  9.16305436E-01
  9.17968180E-01  9.17972308E-01  9.18518981E-01  9.32831267E-01  9.32852847E-01
  9.33089291E-01  9.45313131E-01  1.03290918E+00  1.03440144E+00  1.03441812E+00
  1.67397514E+00  1.67444629E+00  1.67524008E+00  1.67546346E+00  1.67546423E+00
  1.67593718E+00  1.67593958E+00  1.67617161E+00  1.89332000E+00  1.89882010E+00
  1.89917453E+00  1.89918626E+00  2.24605552E+00  2.24612876E+00  2.24613134E+00
  2.25682563E+00  2.25687106E+00  2.29063568E+00  2.29063664E+00  2.29065298E+00
  4.03540230E+00  4.14028867E+00  4.14037824E+00  4.14038683E+00
Alpha MO coefficients                      R   N=        7056
 -5.77877972E-01 -2.83118097E-02 -5.32534554E-05  6.90773296E-05  1.77703487E-04
  7.04001847E-03  1.87314052E-04 -2.61239626E-04 -7.18895192E-04  5.39574390E-03
  5.37262806E-03  5.47503627E-03 -1.97074619E-05 -8.98622559E-06  1.08607859E-05
  1.48680048E-04 -1.41179895E-03  1.63589306E-04 -1.30052660E-03  1.18457211E-04
 -1.65881116E-03 -4.53197031E-01 -2.22026029E-02  9.55624702E-05 -4.17841649E-05
 -1.32864564E-04  5.51029223E-03 -3.96524081E-04  1.73643911E-04  5.16310737E-04
  4.25824436E-03  4.22622741E-03  4.25987643E-03 -4.24045944E-05 -1.95279158E-05
  2.16247308E-05  1.34973315E-04 -9.71600013E-04  1.20034898E-04 -1.08311978E-03
  8.37398190E-05 -1.36925170E-03  2.72551528E-01  1.33598660E-02  4.09993408E-05
  1.03726948E-04 -3.12472010E-05 -3.37121000E-03 -2.13088411E-04 -4.30082232E-04
  1.05098990E-04 -2.55209426E-03 -2.55745155E-03 -2.51520751E-03 -2.38391054E-05
 -1.99530339E-05  1.06478520E-05 -8.07220806E-05  5.88254292E-04 -3.44095616E-05
  9.42786034E-04 -8.62246004E-05  5.46805328E-04  6.10034418E-01  2.98961869E-02
 -8.11474949E-05 -1.63038716E-04  1.22411267E-05 -7.51181416E-03  3.00245286E-04
  6.98244180E-04 -8.06985442E-05 -5.68111486E-03 -5.75156412E-03 -5.66334128E-03
 -2.53282298E-05 -7.66267010E-06  3.45688125E-05 -1.28169111E-04  1.72559301E-03
 -1.58279292E-04  1.47869801E-03 -1.63931886E-04  1.43733989E-03  7.17520469E-01
  3.51504694E-02 -2.77980800E-05  3.88461473E-05 -2.35047596E-04 -8.74001530E-03
  1.57542343E-04 -1.92488823E-04  8.93999851E-04 -6.67923737E-03 -6.69519906E-03
 -6.80357046E-03 -1.54155152E-05 -1.40324763E-06  3.61886591E-06 -1.70223740E-04
  1.85531189E-03 -1.61051837E-04  1.92417651E-03 -2.01414207E-04  1.64997729E-03
 -6.57299759E-01 -3.22142474E-02  1.54649388E-04 -9.69394685E-05 -2.54718731E-05
  8.12717312E-03 -6.57476725E-04  4.14104002E-04  6.12133252E-05  6.16830412E-03
  6.13865005E-03  6.09887792E-03 -4.52586791E-05 -3.16983786E-05  2.79332809E-05
  1.55200855E-04 -1.70339576E-03  1.46043706E-04 -1.77253829E-03  1.80592370E-04
 -1.53859349E-03 -1.21421842E-02 -6.02108429E-04 -3.49602743E-05  4.94927146E-05
  7.67339866E-05  2.13505966E-04  1.75429132E-04 -1.92771236E-04 -3.05314239E-04
  1.16213507E-04  1.08093614E-04  7.52731795E-05 -1.51770515E-05 -5.70363986E-06
  1.31867902E-05 -3.10658781E-05 -2.83022754E-04  6.79032189E-06 -1.55624408E-06
  2.97052284E-05  1.70287146E-04  1.96813990E-01  9.63653321E-03 -5.33755086E-05
 -3.89339021E-05  1.03665673E-04 -2.35017518E-03  2.03324858E-04  1.16828603E-04
 -4.20385486E-04 -1.82540422E-03 -1.86535584E-03 -1.87391702E-03 -1.76078333E-05
 -9.33514702E-06  1.31689336E-05 -5.11687380E-05  4.83449087E-04 -7.91755878E-05
  2.68051297E-04 -1.84123813E-05  7.21613063E-04  2.21320160E-01  1.08144188E-02
  7.09657263E-05  4.69821488E-05 -1.40618386E-04 -2.44586121E-03 -2.81665043E-04
 -2.03477926E-04  4.16700697E-04 -2.09924078E-03 -2.13594092E-03 -2.14866163E-03
  1.43957887E-05  1.04783222E-05  6.34553731E-06 -8.89239821E-05  3.06354229E-04
 -3.81237322E-05  6.84779062E-04 -5.08206926E-05  5.98293596E-04  4.71085334E-01
  2.30526611E-02 -1.11837007E-04  1.83097881E-04  8.51249528E-05 -5.51009713E-03
  3.36679662E-04 -6.63961199E-04 -2.61197970E-04 -4.46425963E-03 -4.47719678E-03
 -4.45201081E-03  4.07157631E-05  3.41506115E-05 -1.46923948E-06 -9.56393040E-05
  1.34383162E-03 -1.46286736E-04  9.65057741E-04 -1.20272742E-04  1.17790832E-03
 -4.06582161E-01 -1.99523712E-02 -3.62870511E-05 -3.26993222E-06 -4.04903267E-05
  5.25318540E-03  2.82214841E-04  4.12619487E-05  2.30810796E-04  3.77469579E-03
  3.72463118E-03  3.73900173E-03  2.82261112E-05  2.08319776E-05  1.44335007E-05
  9.46008470E-05 -1.06008856E-03  1.08032059E-04 -9.75363521E-04  8.37288416E-05
 -1.14274123E-03  7.41289614E-01  3.62920774E-02  1.50151257E-05 -2.84421536E-04
  1.07268718E-04 -8.82932016E-03 -1.32417170E-04  9.79939278E-04 -4.00380251E-04
 -6.94893170E-03 -7.05838561E-03 -6.96908678E-03 -4.96572999E-06  1.99798578E-05
  3.87240309E-05 -2.10942441E-04  1.68686646E-03 -1.69458910E-04  1.96841193E-03
 -1.80353462E-04  1.88625479E-03  2.96586185E-01  1.44830630E-02 -3.47342550E-05
 -3.54122822E-05 -2.13677112E-04 -3.20501584E-03  1.60159390E-04  1.34368200E-04
  5.99641396E-04 -2.86594286E-03 -2.84277301E-03 -2.89596176E-03 -7.52177275E-06
 -4.17054504E-06 -5.57487101E-06 -6.22753712E-05  8.34277643E-04 -9.33701526E-05
  6.01912328E-04 -8.57890755E-05  6.69961043E-04  3.55489247E-01  1.73692842E-02
 -2.07128303E-04  9.29317856E-05  6.75043026E-05 -3.92776681E-03  6.46176677E-04
 -2.27454372E-04 -1.60110000E-04 -3.44234046E-03 -3.41138038E-03 -3.40403245E-03
  1.94002121E-05  8.92283887E-06 -2.13426536E-05 -1.06902514E-04  7.57386211E-04
 -7.57646727E-05  9.89640392E-04 -1.02246688E-04  8.06651898E-04  8.63703472E-01
  4.22715091E-02  3.31834260E-04  1.44782229E-04  1.21965532E-04 -1.01583291E-02
 -1.12485262E-03 -4.33678694E-04 -4.33743450E-04 -8.22903521E-03 -8.14885463E-03
 -8.14302110E-03 -5.15979215E-05 -4.09839447E-05 -2.19732794E-05 -2.15515027E-04
  2.16219026E-03 -2.27259776E-04  2.10718329E-03 -2.18100587E-04  2.14271716E-03
  1.59174435E-01  7.75034710E-03 -5.73493633E-05 -1.62885357E-04  3.12627478E-05
 -1.51482498E-03  1.99980672E-04  4.27252659E-04 -4.63394335E-05 -1.58552439E-03
 -1.59226572E-03 -1.57071191E-03 -9.91962610E-06 -7.73653949E-06  6.99755821E-06
 -3.14938911E-05  4.73052081E-04 -5.33571008E-05  3.03276281E-04 -5.60744653E-05
  2.83759487E-04 -9.83948011E-02  1.93694170E-01  1.03400934E-03 -7.76432938E-04
 -4.29770189E-02  1.83478217E-01  4.73735921E-04 -3.55331462E-04 -1.46389102E-02
  1.98919825E-03  1.98909735E-03 -5.67598290E-03  3.12606876E-08 -4.15027767E-05
  3.00311360E-05  7.51091734E-02  2.42533298E-02  7.51078230E-02  2.42526582E-02
  7.63721662E-02  2.49289246E-02 -9.84071411E-02  1.93718683E-01 -3.21605092E-02
  2.39409102E-02  1.55463785E-02  1.83500433E-01 -1.09144981E-02  8.12465478E-03
  5.43887624E-03 -2.41298580E-03 -4.50394171E-04  1.16549394E-03  3.78447300E-03
  2.19994760E-03 -1.63756395E-03  7.51174696E-02  2.42547220E-02  7.51196742E-02
  2.42577194E-02  7.63812850E-02  2.49307886E-02 -9.82714050E-02  1.93449606E-01
  3.69120996E-02  1.71336311E-02  1.36908178E-02  1.83247577E-01  1.25394428E-02
  5.96555077E-03  4.59087649E-03 -3.76660024E-03  9.48038102E-04  1.12296230E-03
 -2.82267321E-03 -2.57458093E-03 -1.09394972E-03  7.50131781E-02  2.42252476E-02
  7.62744341E-02  2.48998117E-02  7.50126309E-02  2.42245485E-02 -9.83998954E-02
  1.93704741E-01 -5.85668964E-03 -4.03309361E-02  1.37106253E-02  1.83485804E-01
 -2.13038057E-03 -1.37481486E-02  4.59914055E-03  1.90586659E-03 -4.72799500E-03
  1.12459874E-03 -8.67595244E-04  3.10992300E-04  2.78326633E-03  7.63763638E-02
  2.49310200E-02  7.51138408E-02  2.42558708E-02  7.51115209E-02  2.42524854E-02
  9.86834729E-02 -1.95503164E-01  6.07259660E-05 -4.57134852E-05  4.60317061E-02
 -1.85102013E-01  1.17265351E-03 -8.80118102E-04  1.97584655E-02 -2.12577427E-03
 -2.11872073E-03  5.96103570E-03  1.26769358E-05  1.81543587E-04 -1.35105232E-04
 -7.64966238E-02 -2.27710612E-02 -7.64979000E-02 -2.27721483E-02 -7.71518303E-02
 -2.28080142E-02  9.90215648E-02 -1.96173905E-01  3.49488519E-02 -2.60256082E-02
 -1.53334202E-02 -1.85731077E-01  1.53841733E-02 -1.14606586E-02 -5.23441833E-03
  2.59101158E-03  4.92502273E-04 -1.36201611E-03 -4.04908169E-03 -2.22369026E-03
  1.65560830E-03 -7.67611814E-02 -2.28519461E-02 -7.67584790E-02 -2.28475593E-02
 -7.74194764E-02 -2.28890942E-02 -9.85706534E-02  1.95278340E-01  3.98162488E-02
  1.70932312E-02  1.53533082E-02  1.84891380E-01  1.73609001E-02  6.09836513E-03
  7.26470146E-03 -3.99912280E-03  1.12772370E-03  1.15697555E-03 -2.86060842E-03
 -2.79032628E-03 -1.14365196E-03  7.64087095E-02  2.27464475E-02  7.70605096E-02
  2.27828792E-02  7.64080977E-02  2.27467508E-02 -9.92646345E-02  1.96655138E-01
 -5.02581347E-03 -4.33616509E-02  1.54605854E-02  1.86185564E-01 -8.99814435E-04
 -1.85246218E-02  7.30654802E-03  2.08141654E-03 -4.97360080E-03  1.16633670E-03