SO2Me_new_1 0.0                                                         
SP        RB3LYP                                                      6-31G(d)            
Number of atoms                            I               11
Info1-9                                    I   N=           9
          20          20           0           0           0         110
           1          18        -502
Full Title                                 C   N=           2
SO2Me_new_1 0.0         
Route                                      C   N=           2
# nosymm b3lyp/6-31G*   
Charge                                     I                0
Multiplicity                               I                1
Number of electrons                        I               50
Number of alpha electrons                  I               25
Number of beta electrons                   I               25
Number of basis functions                  I               91
Number of independent functions            I               91
Number of point charges in /Mol/           I                0
Number of translation vectors              I                0
Atomic numbers                             I   N=          11
           6           1          16           8           8           6
           1           1           1           1           1
Nuclear charges                            R   N=          11
  6.00000000E+00  1.00000000E+00  1.60000000E+01  8.00000000E+00  8.00000000E+00
  6.00000000E+00  1.00000000E+00  1.00000000E+00  1.00000000E+00  1.00000000E+00
  1.00000000E+00
Current cartesian coordinates              R   N=          33
  0.00000000E+00  0.00000000E+00  0.00000000E+00  1.98566308E+00 -2.02472816E-03
 -5.66353697E-01  0.00000000E+00  0.00000000E+00  3.41617234E+00  1.08399337E+00
  2.41850353E+00  4.26900094E+00  1.08286390E+00 -2.41900636E+00  4.26907356E+00
 -3.32079102E+00  5.66898940E-04  4.21786002E+00 -4.20355840E+00  1.70833311E+00
  3.46763644E+00 -4.20403006E+00 -1.70702561E+00  3.46777012E+00 -3.40549489E+00
  5.64158837E-04  6.28100587E+00 -9.34678723E-01  1.70874883E+00 -6.82021263E-01
 -9.38152494E-01 -1.70670432E+00 -6.82351720E-01
Number of symbols in /Mol/                 I                0
Force Field                                I                0
Atom Types                                 C   N=          11
                                                            
                                                            
            
Int Atom Types                             I   N=          11
           0           0           0           0           0           0
           0           0           0           0           0
MM charges                                 R   N=          11
  0.00000000E+00  0.00000000E+00  0.00000000E+00  0.00000000E+00  0.00000000E+00
  0.00000000E+00  0.00000000E+00  0.00000000E+00  0.00000000E+00  0.00000000E+00
  0.00000000E+00
Integer atomic weights                     I   N=          11
          12           1          32          16          16          12
           1           1           1           1           1
Real atomic weights                        R   N=          11
  1.20000000E+01  1.00782504E+00  3.19720718E+01  1.59949146E+01  1.59949146E+01
  1.20000000E+01  1.00782504E+00  1.00782504E+00  1.00782504E+00  1.00782504E+00
  1.00782504E+00
Atom fragment info                         I   N=          11
           0           0           0           0           0           0
           0           0           0           0           0
Atom residue num                           I   N=          11
           0           0           0           0           0           0
           0           0           0           0           0
Nuclear spins                              I   N=          11
           0           1           0           0           0           0
           1           1           1           1           1
Nuclear ZEff                               R   N=          11
 -3.60000000E+00 -1.00000000E+00 -1.36000000E+01 -5.60000000E+00 -5.60000000E+00
 -3.60000000E+00 -1.00000000E+00 -1.00000000E+00 -1.00000000E+00 -1.00000000E+00
 -1.00000000E+00
Nuclear ZNuc                               R   N=          11
  6.00000000E+00  1.00000000E+00  1.60000000E+01  8.00000000E+00  8.00000000E+00
  6.00000000E+00  1.00000000E+00  1.00000000E+00  1.00000000E+00  1.00000000E+00
  1.00000000E+00
Nuclear QMom                               R   N=          11
  0.00000000E+00  0.00000000E+00  0.00000000E+00  0.00000000E+00  0.00000000E+00
  0.00000000E+00  0.00000000E+00  0.00000000E+00  0.00000000E+00  0.00000000E+00
  0.00000000E+00
Nuclear GFac                               R   N=          11
  0.00000000E+00  2.79284600E+00  0.00000000E+00  0.00000000E+00  0.00000000E+00
  0.00000000E+00  2.79284600E+00  2.79284600E+00  2.79284600E+00  2.79284600E+00
  2.79284600E+00
MicOpt                                     I   N=          11
          -1          -1          -1          -1          -1          -1
          -1          -1          -1          -1          -1
Number of residues                         I                0
Number of secondary structures             I                0
Number of contracted shells                I               33
Number of primitive shells                 I               85
Pure/Cartesian d shells                    I                1
Pure/Cartesian f shells                    I                0
Highest angular momentum                   I                2
Largest degree of contraction              I                6
Shell types                                I   N=          33
           0          -1          -1           2           0           0
           0          -1          -1          -1           2           0
          -1          -1           2           0          -1          -1
           2           0          -1          -1           2           0
           0           0           0           0           0           0
           0           0           0
Number of primitives per shell             I   N=          33
           6           3           1           1           3           1
           6           6           3           1           1           6
           3           1           1           6           3           1
           1           6           3           1           1           3
           1           3           1           3           1           3
           1           3           1
Shell to atom map                          I   N=          33
           1           1           1           1           2           2
           3           3           3           3           3           4
           4           4           4           5           5           5
           5           6           6           6           6           7
           7           8           8           9           9          10
          10          11          11
Primitive exponents                        R   N=          85
  3.04752488E+03  4.57369518E+02  1.03948685E+02  2.92101553E+01  9.28666296E+00
  3.16392696E+00  7.86827235E+00  1.88128854E+00  5.44249258E-01  1.68714478E-01
  8.00000000E-01  1.87311370E+01  2.82539436E+00  6.40121692E-01  1.61277759E-01
  2.19171000E+04  3.30149000E+03  7.54146000E+02  2.12711000E+02  6.79896000E+01
  2.30515000E+01  4.23735000E+02  1.00710000E+02  3.21599000E+01  1.18079000E+01
  4.63110000E+00  1.87025000E+00  2.61584000E+00  9.22167000E-01  3.41287000E-01
  1.17167000E-01  6.50000000E-01  5.48467166E+03  8.25234946E+02  1.88046958E+02
  5.29645000E+01  1.68975704E+01  5.79963534E+00  1.55396162E+01  3.59993359E+00
  1.01376175E+00  2.70005823E-01  8.00000000E-01  5.48467166E+03  8.25234946E+02
  1.88046958E+02  5.29645000E+01  1.68975704E+01  5.79963534E+00  1.55396162E+01
  3.59993359E+00  1.01376175E+00  2.70005823E-01  8.00000000E-01  3.04752488E+03
  4.57369518E+02  1.03948685E+02  2.92101553E+01  9.28666296E+00  3.16392696E+00
  7.86827235E+00  1.88128854E+00  5.44249258E-01  1.68714478E-01  8.00000000E-01
  1.87311370E+01  2.82539436E+00  6.40121692E-01  1.61277759E-01  1.87311370E+01
  2.82539436E+00  6.40121692E-01  1.61277759E-01  1.87311370E+01  2.82539436E+00
  6.40121692E-01  1.61277759E-01  1.87311370E+01  2.82539436E+00  6.40121692E-01
  1.61277759E-01  1.87311370E+01  2.82539436E+00  6.40121692E-01  1.61277759E-01
Contraction coefficients                   R   N=          85
  1.83473713E-03  1.40373228E-02  6.88426223E-02  2.32184443E-01  4.67941348E-01
  3.62311985E-01 -1.19332420E-01 -1.60854152E-01  1.14345644E+00  1.00000000E+00
  1.00000000E+00  3.34946043E-02  2.34726953E-01  8.13757326E-01  1.00000000E+00
  1.86924085E-03  1.42303065E-02  6.96962317E-02  2.38487108E-01  4.83307220E-01
  3.38074154E-01 -2.37677050E-03 -3.16930067E-02 -1.13317024E-01  5.60900118E-02
  5.92255124E-01  4.55006095E-01 -2.50373114E-01  6.69567631E-02  1.05450627E+00
  1.00000000E+00  1.00000000E+00  1.83107443E-03  1.39501722E-02  6.84450781E-02
  2.32714336E-01  4.70192898E-01  3.58520853E-01 -1.10777550E-01 -1.48026263E-01
  1.13076702E+00  1.00000000E+00  1.00000000E+00  1.83107443E-03  1.39501722E-02
  6.84450781E-02  2.32714336E-01  4.70192898E-01  3.58520853E-01 -1.10777550E-01
 -1.48026263E-01  1.13076702E+00  1.00000000E+00  1.00000000E+00  1.83473713E-03
  1.40373228E-02  6.88426223E-02  2.32184443E-01  4.67941348E-01  3.62311985E-01
 -1.19332420E-01 -1.60854152E-01  1.14345644E+00  1.00000000E+00  1.00000000E+00
  3.34946043E-02  2.34726953E-01  8.13757326E-01  1.00000000E+00  3.34946043E-02
  2.34726953E-01  8.13757326E-01  1.00000000E+00  3.34946043E-02  2.34726953E-01
  8.13757326E-01  1.00000000E+00  3.34946043E-02  2.34726953E-01  8.13757326E-01
  1.00000000E+00  3.34946043E-02  2.34726953E-01  8.13757326E-01  1.00000000E+00
P(S=P) Contraction coefficients            R   N=          85
  0.00000000E+00  0.00000000E+00  0.00000000E+00  0.00000000E+00  0.00000000E+00
  0.00000000E+00  6.89990666E-02  3.16423961E-01  7.44308291E-01  1.00000000E+00
  0.00000000E+00  0.00000000E+00  0.00000000E+00  0.00000000E+00  0.00000000E+00
  0.00000000E+00  0.00000000E+00  0.00000000E+00  0.00000000E+00  0.00000000E+00
  0.00000000E+00  4.06100998E-03  3.06812999E-02  1.30451999E-01  3.27204999E-01
  4.52850998E-01  2.56041999E-01 -1.45104895E-02  3.10262776E-01  7.54482456E-01
  1.00000000E+00  0.00000000E+00  0.00000000E+00  0.00000000E+00  0.00000000E+00
  0.00000000E+00  0.00000000E+00  0.00000000E+00  7.08742682E-02  3.39752839E-01
  7.27158577E-01  1.00000000E+00  0.00000000E+00  0.00000000E+00  0.00000000E+00
  0.00000000E+00  0.00000000E+00  0.00000000E+00  0.00000000E+00  7.08742682E-02
  3.39752839E-01  7.27158577E-01  1.00000000E+00  0.00000000E+00  0.00000000E+00
  0.00000000E+00  0.00000000E+00  0.00000000E+00  0.00000000E+00  0.00000000E+00
  6.89990666E-02  3.16423961E-01  7.44308291E-01  1.00000000E+00  0.00000000E+00
  0.00000000E+00  0.00000000E+00  0.00000000E+00  0.00000000E+00  0.00000000E+00
  0.00000000E+00  0.00000000E+00  0.00000000E+00  0.00000000E+00  0.00000000E+00
  0.00000000E+00  0.00000000E+00  0.00000000E+00  0.00000000E+00  0.00000000E+00
  0.00000000E+00  0.00000000E+00  0.00000000E+00  0.00000000E+00  0.00000000E+00
Coordinates of each shell                  R   N=          99
  0.00000000E+00  0.00000000E+00  0.00000000E+00  0.00000000E+00  0.00000000E+00
  0.00000000E+00  0.00000000E+00  0.00000000E+00  0.00000000E+00  0.00000000E+00
  0.00000000E+00  0.00000000E+00  1.98566308E+00 -2.02472816E-03 -5.66353697E-01
  1.98566308E+00 -2.02472816E-03 -5.66353697E-01  0.00000000E+00  0.00000000E+00
  3.41617234E+00  0.00000000E+00  0.00000000E+00  3.41617234E+00  0.00000000E+00
  0.00000000E+00  3.41617234E+00  0.00000000E+00  0.00000000E+00  3.41617234E+00
  0.00000000E+00  0.00000000E+00  3.41617234E+00  1.08399337E+00  2.41850353E+00
  4.26900094E+00  1.08399337E+00  2.41850353E+00  4.26900094E+00  1.08399337E+00
  2.41850353E+00  4.26900094E+00  1.08399337E+00  2.41850353E+00  4.26900094E+00
  1.08286390E+00 -2.41900636E+00  4.26907356E+00  1.08286390E+00 -2.41900636E+00
  4.26907356E+00  1.08286390E+00 -2.41900636E+00  4.26907356E+00  1.08286390E+00
 -2.41900636E+00  4.26907356E+00 -3.32079102E+00  5.66898940E-04  4.21786002E+00
 -3.32079102E+00  5.66898940E-04  4.21786002E+00 -3.32079102E+00  5.66898940E-04
  4.21786002E+00 -3.32079102E+00  5.66898940E-04  4.21786002E+00 -4.20355840E+00
  1.70833311E+00  3.46763644E+00 -4.20355840E+00  1.70833311E+00  3.46763644E+00
 -4.20403006E+00 -1.70702561E+00  3.46777012E+00 -4.20403006E+00 -1.70702561E+00
  3.46777012E+00 -3.40549489E+00  5.64158837E-04  6.28100587E+00 -3.40549489E+00
  5.64158837E-04  6.28100587E+00 -9.34678723E-01  1.70874883E+00 -6.82021263E-01
 -9.34678723E-01  1.70874883E+00 -6.82021263E-01 -9.38152494E-01 -1.70670432E+00
 -6.82351720E-01 -9.38152494E-01 -1.70670432E+00 -6.82351720E-01
Num ILSW                                   I              100
ILSW                                       I   N=         100
           0           1           0           0           2           0
           0           0           0           0         402          -1
           5           0           0           0           0           0
           0           0           1           0           0           0
           1           1           0           0           0           0
           0           0      100000           0          -1           0
           0           0           0           0           0           0
           0           0           0           1           0           0
           0 -2000000000           1           0           0           0
           0           0           4          52           0           0
           0           0           5           0           0           0
           0           0           0           0           0           1
           0           0           0           0           0           0
           0           0           0           0           0           0
           0           0           0           0           0           0
           0           0           0           0           0           0
           0           0           0           0
Num RLSW                                   I               52
RLSW                                       R   N=          52
  8.00000000E-01  7.20000000E-01  1.00000000E+00  8.10000000E-01  2.00000000E-01
  0.00000000E+00  0.00000000E+00  1.00000000E+00  0.00000000E+00  0.00000000E+00
  0.00000000E+00  0.00000000E+00  1.00000000E+00  0.00000000E+00  0.00000000E+00
  0.00000000E+00  0.00000000E+00  1.00000000E+00  0.00000000E+00  0.00000000E+00
  0.00000000E+00  0.00000000E+00  1.00000000E+00  0.00000000E+00  0.00000000E+00
  0.00000000E+00  0.00000000E+00  1.00000000E+00  0.00000000E+00  0.00000000E+00
  0.00000000E+00  0.00000000E+00  1.00000000E+00  0.00000000E+00  0.00000000E+00
  0.00000000E+00  0.00000000E+00  0.00000000E+00  1.00000000E+00  1.00000000E+00
  0.00000000E+00  1.00000000E+00  0.00000000E+00  0.00000000E+00  0.00000000E+00
  0.00000000E+00  0.00000000E+00  0.00000000E+00  0.00000000E+00  0.00000000E+00
  0.00000000E+00  0.00000000E+00
MxBond                                     I                4
NBond                                      I   N=          11
           4           1           4           1           1           4
           1           1           1           1           1
IBond                                      I   N=          44
           2           3          10          11           1           0
           0           0           1           4           5           6
           3           0           0           0           3           0
           0           0           3           7           8           9
           6           0           0           0           6           0
           0           0           6           0           0           0
           1           0           0           0           1           0
           0           0
RBond                                      R   N=          44
  1.00000000E+00  1.00000000E+00  1.00000000E+00  1.00000000E+00  1.00000000E+00
  0.00000000E+00  0.00000000E+00  0.00000000E+00  1.00000000E+00  2.00000000E+00
  2.00000000E+00  1.00000000E+00  2.00000000E+00  0.00000000E+00  0.00000000E+00
  0.00000000E+00  2.00000000E+00  0.00000000E+00  0.00000000E+00  0.00000000E+00
  1.00000000E+00  1.00000000E+00  1.00000000E+00  1.00000000E+00  1.00000000E+00
  0.00000000E+00  0.00000000E+00  0.00000000E+00  1.00000000E+00  0.00000000E+00
  0.00000000E+00  0.00000000E+00  1.00000000E+00  0.00000000E+00  0.00000000E+00
  0.00000000E+00  1.00000000E+00  0.00000000E+00  0.00000000E+00  0.00000000E+00
  1.00000000E+00  0.00000000E+00  0.00000000E+00  0.00000000E+00
Virial Ratio                               R      2.005736946579584E+00
SCF Energy                                 R     -6.284007784852581E+02
Total Energy                               R     -6.284007784852581E+02
RMS Density                                R      3.376824926222083E-09
Job Status                                 I                1
Nuclear derivative order                   I                0
External E-field                           R   N=          35
  0.00000000E+00  0.00000000E+00  0.00000000E+00  0.00000000E+00  0.00000000E+00
  0.00000000E+00  0.00000000E+00  0.00000000E+00  0.00000000E+00  0.00000000E+00
  0.00000000E+00  0.00000000E+00  0.00000000E+00  0.00000000E+00  0.00000000E+00
  0.00000000E+00  0.00000000E+00  0.00000000E+00  0.00000000E+00  0.00000000E+00
  0.00000000E+00  0.00000000E+00  0.00000000E+00  0.00000000E+00  0.00000000E+00
  0.00000000E+00  0.00000000E+00  0.00000000E+00  0.00000000E+00  0.00000000E+00
  0.00000000E+00  0.00000000E+00  0.00000000E+00  0.00000000E+00  0.00000000E+00
IOpCl                                      I                0
IROHF                                      I                0
Alpha Orbital Energies                     R   N=          91
 -8.90955025E+01 -1.91361707E+01 -1.91361617E+01 -1.02316126E+01 -1.02316033E+01
 -8.12478879E+00 -6.08878618E+00 -6.08837181E+00 -6.08828194E+00 -1.09414134E+00
 -9.90287532E-01 -7.98644233E-01 -7.50586144E-01 -6.03931383E-01 -5.04043159E-01
 -4.88558250E-01 -4.82615121E-01 -4.51131272E-01 -4.42345972E-01 -4.24208806E-01
 -4.20987422E-01 -3.23955653E-01 -3.09766624E-01 -2.93229451E-01 -2.89064879E-01
  5.86222626E-02  7.15555819E-02  8.14881017E-02  8.48536306E-02  9.38776128E-02
  1.31345106E-01  1.40225102E-01  1.45978182E-01  1.49664217E-01  1.57157069E-01
  3.68775541E-01  3.71933953E-01  4.26870837E-01  4.33452316E-01  4.96349605E-01
  5.00691283E-01  5.36129077E-01  5.37343322E-01  6.48710973E-01  6.98921940E-01
  7.24981373E-01  7.70775399E-01  8.09828707E-01  8.18683409E-01  8.39531170E-01
  8.54886754E-01  8.69316427E-01  8.81392349E-01  8.82110659E-01  9.01644559E-01
  9.73376109E-01  1.01919294E+00  1.03309168E+00  1.05729344E+00  1.16007027E+00
  1.16957939E+00  1.19151867E+00  1.23921529E+00  1.26859667E+00  1.38466472E+00
  1.61323995E+00  1.62111541E+00  1.64191424E+00  1.73994792E+00  1.74752899E+00
  1.81298535E+00  1.81546404E+00  1.86362247E+00  1.86890151E+00  2.01756991E+00
  2.05573131E+00  2.07093899E+00  2.09625189E+00  2.17291383E+00  2.17602889E+00
  2.19001762E+00  2.21661808E+00  2.27465660E+00  2.29602439E+00  2.73924854E+00
  2.81355791E+00  3.82415311E+00  3.86120159E+00  3.92904801E+00  4.18268115E+00
  4.18617702E+00
Alpha MO coefficients                      R   N=        8281
 -1.52284983E-05  3.07009046E-05 -4.47111799E-06 -1.20418910E-08  1.24862947E-04
  5.17744405E-04  5.81276669E-05  6.52626785E-08 -1.87271191E-05 -2.34803872E-05
 -3.37511882E-05 -7.82577371E-05 -2.09628454E-08  5.65470877E-06 -1.88336595E-09
 -5.63609918E-05 -2.13239924E-04  9.96120572E-01  1.48516264E-02 -8.80688356E-06
  3.05526503E-09 -6.93281331E-06 -2.42314012E-02  7.69292270E-05 -1.26501150E-08
  6.05772577E-05  2.42210436E-03 -1.63191653E-04  3.85534166E-08 -1.28445165E-04
  8.54119768E-03  8.63835112E-03  8.53455963E-03  2.48241081E-08  1.58661641E-05
  9.37362918E-10  2.61038053E-05  5.70317264E-05  3.39935444E-05  1.00720354E-04
  2.67352498E-05  1.28677543E-04 -4.38004009E-05 -2.12568267E-04 -3.44273121E-05
  3.97643675E-05 -1.15340337E-04  5.86741479E-05 -1.14166682E-04 -4.51021229E-05
 -8.98242079E-05  2.61016728E-05  5.70300341E-05  3.39364311E-05 -1.00732403E-04
  2.67384231E-05  1.28700939E-04 -4.36846216E-05  2.12601216E-04 -3.44433251E-05
  3.98480085E-05 -1.15433232E-04  5.86640250E-05  1.14079413E-04 -4.50660584E-05
  8.98471822E-05 -1.52261385E-05  3.07068662E-05  1.20331803E-04 -1.82680163E-08
 -3.36509193E-05  5.17659354E-04 -4.60856113E-06 -1.83131367E-08  6.09050755E-05
 -7.29914543E-05 -3.37492162E-05 -2.87272953E-05  9.49150318E-09  1.94559750E-05
 -2.02713653E-09 -4.34623664E-05 -1.92903936E-04 -4.34759324E-05 -1.92896867E-04
 -5.63567857E-05 -2.13232062E-04 -4.34780296E-05 -1.92991690E-04 -4.34670835E-05
 -1.92835138E-04 -9.72899029E-06 -5.93392947E-05  8.66695588E-06 -1.17434175E-05
  1.68675834E-05  4.66366150E-04 -2.26005240E-05  3.68700570E-04  2.90089004E-04
 -3.82558606E-06 -1.86682090E-05  2.10781681E-05 -4.31145022E-05  8.30298484E-07
  3.75658828E-05 -2.37716774E-05  1.20965636E-04  1.18446139E-05 -1.89431049E-05
  6.72437770E-06 -1.62167536E-05  5.30300972E-06  5.76527883E-04 -1.13745510E-06
  3.21932689E-04 -9.98222041E-07 -2.67477619E-03 -2.44923574E-04 -2.49888761E-03
 -1.92109632E-04 -8.06395481E-05 -4.35146380E-05 -7.85732427E-05  6.20319809E-05
 -5.01860630E-06  4.88261253E-05  9.63173419E-01  2.49760753E-02 -3.56863138E-04
 -8.05658426E-04 -2.80732413E-04  1.19899662E-02 -3.32639043E-04 -3.95678191E-04
 -2.61806463E-04 -7.81479899E-03 -7.82412225E-03 -7.82224313E-03  4.76752810E-06
  1.77817287E-05  3.75589532E-06 -2.40546569E-01 -6.25385588E-03  5.16604986E-05
 -2.26581676E-04  4.07175275E-05 -2.87738961E-03  2.04815144E-04  2.13885235E-04
  1.61143059E-04  1.93977190E-03  1.98053603E-03  1.95102848E-03 -1.95756456E-05
 -2.68818705E-05 -1.54178180E-05 -9.72964905E-06 -5.93781085E-05  1.84045050E-05
 -1.17380589E-05  4.37755415E-06  4.66242499E-04  2.76774074E-04  3.68691716E-04
 -8.96704706E-05  2.00671927E-05 -1.87231652E-05 -2.71644156E-06  2.64120005E-05
 -5.81592180E-06 -5.07319815E-05 -6.89859147E-05  1.03903516E-04  6.07888684E-05
 -1.06295782E-04 -2.37820303E-05  1.20522250E-04 -6.89197318E-05  1.03707656E-04
  6.07658750E-05 -1.06456368E-04 -1.62253041E-05 -9.89380732E-05  1.42698102E-05
  6.96996168E-06  2.80894282E-05  7.77347386E-04 -3.70678739E-05 -2.20945726E-04
  4.83359018E-04 -6.26863142E-06 -3.12496864E-05  3.50992719E-05  2.58658681E-05
  1.36509681E-06 -2.25638937E-05 -3.95889325E-05  2.00692845E-04  1.97312108E-05
 -3.15258775E-05  1.12167909E-05  9.74088153E-06  8.82551091E-06  9.60390927E-04
 -2.12484858E-06 -1.93292564E-04 -1.62830489E-06 -4.45614083E-03 -4.06361780E-04
  1.50022786E-03 -3.19939120E-04 -1.34349402E-04 -7.23636788E-05 -1.30837301E-04
 -3.72312157E-05 -8.34346391E-06 -2.92983816E-05  2.40541286E-01  6.21907195E-03
 -1.31437961E-04 -1.72480838E-04 -1.03424144E-04  3.12704551E-03  5.46982063E-05
 -4.53229678E-04  4.31171442E-05 -1.96514608E-03 -1.92397170E-03 -1.95638244E-03
  2.47414075E-05 -2.09772110E-05  1.94801530E-05  9.63172107E-01  2.49673930E-02
 -3.76363784E-04  7.92309496E-04 -2.96408857E-04  1.20522428E-02 -2.67608460E-04
  5.62417798E-04 -2.10830142E-04 -7.82112955E-03 -7.80998166E-03 -7.82355368E-03
 -1.58287973E-05  5.82759834E-06 -1.24711739E-05 -1.62213591E-05 -9.89282333E-05
  3.06662977E-05  7.02838015E-06  7.32464334E-06  7.77189261E-04  4.61023571E-04
 -2.21340350E-04 -1.49638326E-04  3.33610865E-05 -3.12036713E-05 -4.55317212E-06
 -1.58562164E-05 -9.69014872E-06  3.04509460E-05  3.20999875E-05 -6.51708767E-05
 -4.57563991E-05  6.10330459E-05 -3.95969574E-05  2.00868667E-04  3.21139679E-05
 -6.53153052E-05 -4.57917907E-05  6.13613683E-05 -2.55790717E-01 -1.28598966E-02
  1.25670336E-04 -1.75136329E-07 -1.45359182E-04  3.18705944E-03 -4.67899455E-04
  1.07423881E-06 -4.11014650E-04  2.37148035E-03  2.34855991E-03  2.35319296E-03
  5.34985982E-08  1.05575572E-05 -3.05008554E-08  4.82132696E-05 -2.07613075E-04
 -4.70921708E-06 -9.56426642E-05  2.28657618E-06  5.11073908E-09 -1.97874015E-05
 -2.24422268E-04 -2.50038164E-04  2.96038310E-08  2.86977775E-04  4.41829455E-03
 -2.07489106E-03  3.05070156E-07  1.93827881E-04 -1.47739244E-04 -6.47357039E-05
 -1.21884600E-04  3.49201146E-08 -2.15347496E-05  6.50607113E-08  2.24164878E-05
  1.01463830E-04  1.34157125E-05  1.74690100E-05 -2.10479100E-05 -7.54238797E-04
  1.99666098E-04  1.04094460E-04  1.07649147E-04  1.33073388E-04  4.50287954E-05
 -2.54095697E-05  9.30463908E-07 -4.97203955E-05  1.65884643E-05  2.24124392E-05
  1.01421950E-04  1.34187318E-05 -1.74947159E-05 -2.10516300E-05 -7.54201215E-04
  1.99505846E-04 -1.04084467E-04  1.07669657E-04  1.33106170E-04  4.50214369E-05
 -2.54438771E-05 -1.01398807E-06 -4.97358796E-05 -1.65758301E-05  9.59357433E-01
  4.86346473E-02  3.51481625E-04 -8.17667203E-08 -1.56710226E-04 -1.55708835E-02
 -1.24238207E-03  4.19230734E-07  5.64231938E-04 -9.10143794E-03 -8.88031651E-03
 -8.89796665E-03  2.50273613E-08  8.84608634E-05 -1.98180695E-08 -5.58591386E-05
  2.33325882E-03 -5.58582944E-05  2.33355097E-03 -6.15539862E-05  2.08308140E-03
  5.03314403E-05 -1.09181197E-03  5.02244948E-05 -1.09080516E-03  9.59363373E-01
  4.86967011E-02 -8.36170853E-06 -1.60925706E-07  3.52978865E-04 -1.61243945E-02
  2.74592417E-05  6.48161321E-07 -1.78137445E-03 -8.87122209E-03 -8.89140969E-03
 -9.17114173E-03 -1.08803943E-08  3.50240577E-05  1.24855513E-08 -4.33202693E-05
  2.28286247E-03 -8.13103117E-06 -1.65158679E-04 -2.02400190E-05  4.90640456E-09
 -3.42666735E-06 -3.87449037E-04  1.10395456E-04 -3.27433325E-08 -1.93292704E-04
  7.63042800E-03 -1.53513188E-03 -3.08859386E-07 -2.26656570E-03 -2.36770295E-04
 -1.11852413E-04 -2.28834407E-04  9.64898507E-09 -4.22979036E-05  2.01056868E-08
  3.86867855E-05  1.75071226E-04 -1.22641831E-05  3.02078782E-05  8.67329454E-06
 -1.30200719E-03  2.89256962E-04  1.79598040E-04  2.56161627E-04  3.44227698E-05
  7.76735788E-05  1.51421781E-04  1.94396690E-05 -3.14144436E-05  6.18258187E-06
  3.87229774E-05  1.75226564E-04 -1.22391723E-05 -3.01818041E-05  8.67713878E-06
 -1.30291799E-03  2.89120436E-04 -1.79864758E-04  2.56248269E-04  3.45183055E-05
  7.77901265E-05  1.51510188E-04 -1.94228613E-05 -3.13931903E-05 -6.13621743E-06
  2.55813101E-01  1.30923156E-02  7.28903249E-05 -8.07374192E-09  9.02314898E-05
 -5.26390689E-03 -1.30056218E-03  2.39613245E-07 -8.93798937E-05 -2.50569837E-03
 -2.39006138E-03 -2.37972232E-03  3.51588626E-08  6.71679219E-05 -4.11326450E-08
  2.58132967E-05  8.14844614E-05  2.59767751E-05  8.09777430E-05  2.02421185E-05
  9.56465953E-04 -3.55594653E-05  2.06366620E-03 -3.55968715E-05  2.06439653E-03
 -4.76818398E-05  1.82232449E-04  9.91512161E-07  2.25371172E-07 -7.19431971E-04
  4.69604608E-04 -5.59451166E-04 -1.35003082E-06  1.83939905E-03 -1.50808751E-05
  8.87513578E-05 -6.15286696E-04  1.90023540E-07 -9.22099644E-05  4.49024673E-08
  7.70085439E-05  1.32852049E-03 -2.79886544E-01  1.02309621E+00  6.73143345E-04
  2.12508330E-07  5.30698867E-04  7.39530949E-02  3.31511789E-04  2.16712464E-08
  2.60858927E-04 -1.80984686E-02  3.44058382E-03 -1.14189066E-07  2.70875082E-03
 -1.53759503E-02 -1.43897598E-02 -1.55122266E-02  3.22115787E-07  3.25668498E-04
 -1.33245333E-07 -1.82446706E-04 -1.92784379E-05  2.43588781E-05 -2.48001134E-04
  1.92461829E-05 -8.20088450E-04  3.00971874E-04  2.35683461E-03  2.36372576E-04
 -1.57382233E-05 -1.39249204E-04 -3.25688916E-05  6.89075020E-06  4.01938271E-05
  5.44450284E-06 -1.82462075E-04 -1.94139451E-05  2.45181600E-05  2.48001644E-04
  1.92357480E-05 -8.19197520E-04  2.99671045E-04 -2.35694862E-03  2.36382489E-04
 -1.58073641E-05 -1.39345409E-04 -3.26308945E-05 -6.93727014E-06  4.02181266E-05
 -5.43975918E-06 -4.77012734E-05  1.82168805E-04 -6.99120851E-04  9.77947434E-08
  1.69809752E-04  4.70219001E-04  1.65686612E-03 -2.04315785E-07 -9.75538077E-04
 -6.18746348E-04  8.87260154E-05 -1.17439007E-05  1.15958084E-07  7.60675890E-05
 -2.24217955E-08 -7.30528732E-05  1.49492500E-03 -7.30224664E-05  1.49505398E-03
  7.69858774E-05  1.32840251E-03 -7.29500741E-05  1.49631107E-03 -7.30733078E-05
  1.49406957E-03 -2.18809647E-09 -8.71241506E-08 -2.14488658E-07 -1.39708338E-04
  4.93194117E-08  3.67135414E-07  7.21318157E-07 -9.28953099E-04  3.29651470E-07
  2.91070448E-07 -3.20744181E-07  1.12246282E-07  1.22629188E-04 -1.52496705E-07
 -5.26750204E-04 -1.55748110E-08 -1.92025270E-06  1.25998461E-07 -3.76228925E-07
  2.10862238E-04  9.90670398E-01  4.75937595E-05  5.07517572E-07  7.22316945E-06
  3.30960414E-02  1.32166658E-06 -1.51049867E-06  1.42882172E-07 -4.58277598E-03
 -1.23902532E-07  6.74619101E-07 -6.02651532E-07 -8.82309458E-08  1.90960432E-03
  4.11904753E-07  1.50329559E-03 -3.19794941E-04  6.14319797E-04 -1.32734537E-04
 -2.57895101E-04 -1.04477744E-04 -4.51643414E-03  2.08271900E-03  3.74367040E-03
  1.63889386E-03  3.74321356E-05  2.22060805E-04  1.07852099E-04 -2.47360248E-04
 -1.68049675E-04 -1.94678926E-04  3.19781759E-04 -6.14222444E-04  1.32634542E-04
 -2.57897988E-04  1.04417320E-04  4.51599102E-03 -2.08117374E-03  3.74434134E-03
 -1.63885617E-03 -3.75395962E-05 -2.21803610E-04 -1.07737372E-04 -2.47458548E-04
  1.67993318E-04 -1.94820400E-04 -5.33439287E-08 -2.87295393E-07 -2.92274947E-09
 -1.39664388E-04  1.01844051E-07  1.55526605E-06  4.17532562E-07 -9.29054063E-04
 -7.72539463E-07 -1.51314184E-07  9.27499039E-08 -1.00897945E-07 -4.83264845E-04
 -3.17466555E-08  2.42803415E-04  6.46599686E-05  8.86080963E-04 -6.48933507E-05
 -8.86398856E-04 -1.51995743E-08  3.88832700E-07  6.47937789E-05  8.87215743E-04