tBu_new_1 0.0                                                           
SP        RB3LYP                                                      6-31G(d)            
Number of atoms                            I               17
Info1-9                                    I   N=           9
          26          26           0           0           0         110
           1          18        -502
Full Title                                 C   N=           2
tBu_new_1 0.0           
Route                                      C   N=           2
# nosymm b3lyp/6-31G*   
Charge                                     I                0
Multiplicity                               I                1
Number of electrons                        I               42
Number of alpha electrons                  I               21
Number of beta electrons                   I               21
Number of basis functions                  I               99
Number of independent functions            I               99
Number of point charges in /Mol/           I                0
Number of translation vectors              I                0
Atomic numbers                             I   N=          17
           6           6           6           6           6           1
           1           1           1           1           1           1
           1           1           1           1           1
Nuclear charges                            R   N=          17
  6.00000000E+00  6.00000000E+00  6.00000000E+00  6.00000000E+00  6.00000000E+00
  1.00000000E+00  1.00000000E+00  1.00000000E+00  1.00000000E+00  1.00000000E+00
  1.00000000E+00  1.00000000E+00  1.00000000E+00  1.00000000E+00  1.00000000E+00
  1.00000000E+00  1.00000000E+00
Current cartesian coordinates              R   N=          51
  0.00000000E+00  0.00000000E+00  0.00000000E+00  0.00000000E+00  0.00000000E+00
  2.90748335E+00 -7.95570258E-01  2.62327493E+00  3.87666518E+00  2.66962483E+00
 -6.22582914E-01  3.87665761E+00 -1.87397550E+00 -2.00055699E+00  3.87681196E+00
 -1.88463607E+00  4.39220936E-01 -7.45503532E-01  1.32272907E+00  1.41251638E+00
 -7.45394514E-01  5.61962805E-01 -1.85178424E+00 -7.45360140E-01 -2.69705566E+00
  3.11780006E+00  3.21311475E+00 -8.11990768E-01  2.67870817E+00  5.94962662E+00
  5.10393370E-01  4.09085842E+00  3.21253022E+00  4.04879030E+00  7.76515544E-01
  3.21264383E+00  3.28745317E+00 -2.48765762E+00  3.21312374E+00  2.72598765E+00
 -6.35361280E-01  5.94961466E+00 -1.35158868E+00 -3.89462932E+00  3.21352780E+00
 -1.91359951E+00 -2.04213586E+00  5.94977417E+00 -3.79791750E+00 -1.60325064E+00
  3.21268901E+00
Number of symbols in /Mol/                 I                0
Force Field                                I                0
Atom Types                                 C   N=          17
                                                            
                                                            
                                                            
                        
Int Atom Types                             I   N=          17
           0           0           0           0           0           0
           0           0           0           0           0           0
           0           0           0           0           0
MM charges                                 R   N=          17
  0.00000000E+00  0.00000000E+00  0.00000000E+00  0.00000000E+00  0.00000000E+00
  0.00000000E+00  0.00000000E+00  0.00000000E+00  0.00000000E+00  0.00000000E+00
  0.00000000E+00  0.00000000E+00  0.00000000E+00  0.00000000E+00  0.00000000E+00
  0.00000000E+00  0.00000000E+00
Integer atomic weights                     I   N=          17
          12          12          12          12          12           1
           1           1           1           1           1           1
           1           1           1           1           1
Real atomic weights                        R   N=          17
  1.20000000E+01  1.20000000E+01  1.20000000E+01  1.20000000E+01  1.20000000E+01
  1.00782504E+00  1.00782504E+00  1.00782504E+00  1.00782504E+00  1.00782504E+00
  1.00782504E+00  1.00782504E+00  1.00782504E+00  1.00782504E+00  1.00782504E+00
  1.00782504E+00  1.00782504E+00
Atom fragment info                         I   N=          17
           0           0           0           0           0           0
           0           0           0           0           0           0
           0           0           0           0           0
Atom residue num                           I   N=          17
           0           0           0           0           0           0
           0           0           0           0           0           0
           0           0           0           0           0
Nuclear spins                              I   N=          17
           0           0           0           0           0           1
           1           1           1           1           1           1
           1           1           1           1           1
Nuclear ZEff                               R   N=          17
 -3.60000000E+00 -3.60000000E+00 -3.60000000E+00 -3.60000000E+00 -3.60000000E+00
 -1.00000000E+00 -1.00000000E+00 -1.00000000E+00 -1.00000000E+00 -1.00000000E+00
 -1.00000000E+00 -1.00000000E+00 -1.00000000E+00 -1.00000000E+00 -1.00000000E+00
 -1.00000000E+00 -1.00000000E+00
Nuclear ZNuc                               R   N=          17
  6.00000000E+00  6.00000000E+00  6.00000000E+00  6.00000000E+00  6.00000000E+00
  1.00000000E+00  1.00000000E+00  1.00000000E+00  1.00000000E+00  1.00000000E+00
  1.00000000E+00  1.00000000E+00  1.00000000E+00  1.00000000E+00  1.00000000E+00
  1.00000000E+00  1.00000000E+00
Nuclear QMom                               R   N=          17
  0.00000000E+00  0.00000000E+00  0.00000000E+00  0.00000000E+00  0.00000000E+00
  0.00000000E+00  0.00000000E+00  0.00000000E+00  0.00000000E+00  0.00000000E+00
  0.00000000E+00  0.00000000E+00  0.00000000E+00  0.00000000E+00  0.00000000E+00
  0.00000000E+00  0.00000000E+00
Nuclear GFac                               R   N=          17
  0.00000000E+00  0.00000000E+00  0.00000000E+00  0.00000000E+00  0.00000000E+00
  2.79284600E+00  2.79284600E+00  2.79284600E+00  2.79284600E+00  2.79284600E+00
  2.79284600E+00  2.79284600E+00  2.79284600E+00  2.79284600E+00  2.79284600E+00
  2.79284600E+00  2.79284600E+00
MicOpt                                     I   N=          17
          -1          -1          -1          -1          -1          -1
          -1          -1          -1          -1          -1          -1
          -1          -1          -1          -1          -1
Number of residues                         I                0
Number of secondary structures             I                0
Number of contracted shells                I               44
Number of primitive shells                 I              103
Pure/Cartesian d shells                    I                1
Pure/Cartesian f shells                    I                0
Highest angular momentum                   I                2
Largest degree of contraction              I                6
Shell types                                I   N=          44
           0          -1          -1           2           0          -1
          -1           2           0          -1          -1           2
           0          -1          -1           2           0          -1
          -1           2           0           0           0           0
           0           0           0           0           0           0
           0           0           0           0           0           0
           0           0           0           0           0           0
           0           0
Number of primitives per shell             I   N=          44
           6           3           1           1           6           3
           1           1           6           3           1           1
           6           3           1           1           6           3
           1           1           3           1           3           1
           3           1           3           1           3           1
           3           1           3           1           3           1
           3           1           3           1           3           1
           3           1
Shell to atom map                          I   N=          44
           1           1           1           1           2           2
           2           2           3           3           3           3
           4           4           4           4           5           5
           5           5           6           6           7           7
           8           8           9           9          10          10
          11          11          12          12          13          13
          14          14          15          15          16          16
          17          17
Primitive exponents                        R   N=         103
  3.04752488E+03  4.57369518E+02  1.03948685E+02  2.92101553E+01  9.28666296E+00
  3.16392696E+00  7.86827235E+00  1.88128854E+00  5.44249258E-01  1.68714478E-01
  8.00000000E-01  3.04752488E+03  4.57369518E+02  1.03948685E+02  2.92101553E+01
  9.28666296E+00  3.16392696E+00  7.86827235E+00  1.88128854E+00  5.44249258E-01
  1.68714478E-01  8.00000000E-01  3.04752488E+03  4.57369518E+02  1.03948685E+02
  2.92101553E+01  9.28666296E+00  3.16392696E+00  7.86827235E+00  1.88128854E+00
  5.44249258E-01  1.68714478E-01  8.00000000E-01  3.04752488E+03  4.57369518E+02
  1.03948685E+02  2.92101553E+01  9.28666296E+00  3.16392696E+00  7.86827235E+00
  1.88128854E+00  5.44249258E-01  1.68714478E-01  8.00000000E-01  3.04752488E+03
  4.57369518E+02  1.03948685E+02  2.92101553E+01  9.28666296E+00  3.16392696E+00
  7.86827235E+00  1.88128854E+00  5.44249258E-01  1.68714478E-01  8.00000000E-01
  1.87311370E+01  2.82539436E+00  6.40121692E-01  1.61277759E-01  1.87311370E+01
  2.82539436E+00  6.40121692E-01  1.61277759E-01  1.87311370E+01  2.82539436E+00
  6.40121692E-01  1.61277759E-01  1.87311370E+01  2.82539436E+00  6.40121692E-01
  1.61277759E-01  1.87311370E+01  2.82539436E+00  6.40121692E-01  1.61277759E-01
  1.87311370E+01  2.82539436E+00  6.40121692E-01  1.61277759E-01  1.87311370E+01
  2.82539436E+00  6.40121692E-01  1.61277759E-01  1.87311370E+01  2.82539436E+00
  6.40121692E-01  1.61277759E-01  1.87311370E+01  2.82539436E+00  6.40121692E-01
  1.61277759E-01  1.87311370E+01  2.82539436E+00  6.40121692E-01  1.61277759E-01
  1.87311370E+01  2.82539436E+00  6.40121692E-01  1.61277759E-01  1.87311370E+01
  2.82539436E+00  6.40121692E-01  1.61277759E-01
Contraction coefficients                   R   N=         103
  1.83473713E-03  1.40373228E-02  6.88426223E-02  2.32184443E-01  4.67941348E-01
  3.62311985E-01 -1.19332420E-01 -1.60854152E-01  1.14345644E+00  1.00000000E+00
  1.00000000E+00  1.83473713E-03  1.40373228E-02  6.88426223E-02  2.32184443E-01
  4.67941348E-01  3.62311985E-01 -1.19332420E-01 -1.60854152E-01  1.14345644E+00
  1.00000000E+00  1.00000000E+00  1.83473713E-03  1.40373228E-02  6.88426223E-02
  2.32184443E-01  4.67941348E-01  3.62311985E-01 -1.19332420E-01 -1.60854152E-01
  1.14345644E+00  1.00000000E+00  1.00000000E+00  1.83473713E-03  1.40373228E-02
  6.88426223E-02  2.32184443E-01  4.67941348E-01  3.62311985E-01 -1.19332420E-01
 -1.60854152E-01  1.14345644E+00  1.00000000E+00  1.00000000E+00  1.83473713E-03
  1.40373228E-02  6.88426223E-02  2.32184443E-01  4.67941348E-01  3.62311985E-01
 -1.19332420E-01 -1.60854152E-01  1.14345644E+00  1.00000000E+00  1.00000000E+00
  3.34946043E-02  2.34726953E-01  8.13757326E-01  1.00000000E+00  3.34946043E-02
  2.34726953E-01  8.13757326E-01  1.00000000E+00  3.34946043E-02  2.34726953E-01
  8.13757326E-01  1.00000000E+00  3.34946043E-02  2.34726953E-01  8.13757326E-01
  1.00000000E+00  3.34946043E-02  2.34726953E-01  8.13757326E-01  1.00000000E+00
  3.34946043E-02  2.34726953E-01  8.13757326E-01  1.00000000E+00  3.34946043E-02
  2.34726953E-01  8.13757326E-01  1.00000000E+00  3.34946043E-02  2.34726953E-01
  8.13757326E-01  1.00000000E+00  3.34946043E-02  2.34726953E-01  8.13757326E-01
  1.00000000E+00  3.34946043E-02  2.34726953E-01  8.13757326E-01  1.00000000E+00
  3.34946043E-02  2.34726953E-01  8.13757326E-01  1.00000000E+00  3.34946043E-02
  2.34726953E-01  8.13757326E-01  1.00000000E+00
P(S=P) Contraction coefficients            R   N=         103
  0.00000000E+00  0.00000000E+00  0.00000000E+00  0.00000000E+00  0.00000000E+00
  0.00000000E+00  6.89990666E-02  3.16423961E-01  7.44308291E-01  1.00000000E+00
  0.00000000E+00  0.00000000E+00  0.00000000E+00  0.00000000E+00  0.00000000E+00
  0.00000000E+00  0.00000000E+00  6.89990666E-02  3.16423961E-01  7.44308291E-01
  1.00000000E+00  0.00000000E+00  0.00000000E+00  0.00000000E+00  0.00000000E+00
  0.00000000E+00  0.00000000E+00  0.00000000E+00  6.89990666E-02  3.16423961E-01
  7.44308291E-01  1.00000000E+00  0.00000000E+00  0.00000000E+00  0.00000000E+00
  0.00000000E+00  0.00000000E+00  0.00000000E+00  0.00000000E+00  6.89990666E-02
  3.16423961E-01  7.44308291E-01  1.00000000E+00  0.00000000E+00  0.00000000E+00
  0.00000000E+00  0.00000000E+00  0.00000000E+00  0.00000000E+00  0.00000000E+00
  6.89990666E-02  3.16423961E-01  7.44308291E-01  1.00000000E+00  0.00000000E+00
  0.00000000E+00  0.00000000E+00  0.00000000E+00  0.00000000E+00  0.00000000E+00
  0.00000000E+00  0.00000000E+00  0.00000000E+00  0.00000000E+00  0.00000000E+00
  0.00000000E+00  0.00000000E+00  0.00000000E+00  0.00000000E+00  0.00000000E+00
  0.00000000E+00  0.00000000E+00  0.00000000E+00  0.00000000E+00  0.00000000E+00
  0.00000000E+00  0.00000000E+00  0.00000000E+00  0.00000000E+00  0.00000000E+00
  0.00000000E+00  0.00000000E+00  0.00000000E+00  0.00000000E+00  0.00000000E+00
  0.00000000E+00  0.00000000E+00  0.00000000E+00  0.00000000E+00  0.00000000E+00
  0.00000000E+00  0.00000000E+00  0.00000000E+00  0.00000000E+00  0.00000000E+00
  0.00000000E+00  0.00000000E+00  0.00000000E+00  0.00000000E+00  0.00000000E+00
  0.00000000E+00  0.00000000E+00  0.00000000E+00
Coordinates of each shell                  R   N=         132
  0.00000000E+00  0.00000000E+00  0.00000000E+00  0.00000000E+00  0.00000000E+00
  0.00000000E+00  0.00000000E+00  0.00000000E+00  0.00000000E+00  0.00000000E+00
  0.00000000E+00  0.00000000E+00  0.00000000E+00  0.00000000E+00  2.90748335E+00
  0.00000000E+00  0.00000000E+00  2.90748335E+00  0.00000000E+00  0.00000000E+00
  2.90748335E+00  0.00000000E+00  0.00000000E+00  2.90748335E+00 -7.95570258E-01
  2.62327493E+00  3.87666518E+00 -7.95570258E-01  2.62327493E+00  3.87666518E+00
 -7.95570258E-01  2.62327493E+00  3.87666518E+00 -7.95570258E-01  2.62327493E+00
  3.87666518E+00  2.66962483E+00 -6.22582914E-01  3.87665761E+00  2.66962483E+00
 -6.22582914E-01  3.87665761E+00  2.66962483E+00 -6.22582914E-01  3.87665761E+00
  2.66962483E+00 -6.22582914E-01  3.87665761E+00 -1.87397550E+00 -2.00055699E+00
  3.87681196E+00 -1.87397550E+00 -2.00055699E+00  3.87681196E+00 -1.87397550E+00
 -2.00055699E+00  3.87681196E+00 -1.87397550E+00 -2.00055699E+00  3.87681196E+00
 -1.88463607E+00  4.39220936E-01 -7.45503532E-01 -1.88463607E+00  4.39220936E-01
 -7.45503532E-01  1.32272907E+00  1.41251638E+00 -7.45394514E-01  1.32272907E+00
  1.41251638E+00 -7.45394514E-01  5.61962805E-01 -1.85178424E+00 -7.45360140E-01
  5.61962805E-01 -1.85178424E+00 -7.45360140E-01 -2.69705566E+00  3.11780006E+00
  3.21311475E+00 -2.69705566E+00  3.11780006E+00  3.21311475E+00 -8.11990768E-01
  2.67870817E+00  5.94962662E+00 -8.11990768E-01  2.67870817E+00  5.94962662E+00
  5.10393370E-01  4.09085842E+00  3.21253022E+00  5.10393370E-01  4.09085842E+00
  3.21253022E+00  4.04879030E+00  7.76515544E-01  3.21264383E+00  4.04879030E+00
  7.76515544E-01  3.21264383E+00  3.28745317E+00 -2.48765762E+00  3.21312374E+00
  3.28745317E+00 -2.48765762E+00  3.21312374E+00  2.72598765E+00 -6.35361280E-01
  5.94961466E+00  2.72598765E+00 -6.35361280E-01  5.94961466E+00 -1.35158868E+00
 -3.89462932E+00  3.21352780E+00 -1.35158868E+00 -3.89462932E+00  3.21352780E+00
 -1.91359951E+00 -2.04213586E+00  5.94977417E+00 -1.91359951E+00 -2.04213586E+00
  5.94977417E+00 -3.79791750E+00 -1.60325064E+00  3.21268901E+00 -3.79791750E+00
 -1.60325064E+00  3.21268901E+00
Num ILSW                                   I              100
ILSW                                       I   N=         100
           0           1           0           0           2           0
           0           0           0           0         402          -1
           5           0           0           0           0           0
           0           0           1           0           0           0
           1           1           0           0           0           0
           0           0      100000           0          -1           0
           0           0           0           0           0           0
           0           0           0           1           0           0
           0 -2000000000           1           0           0           0
           0           0           4          52           0           0
           0           0           5           0           0           0
           0           0           0           0           0           1
           0           0           0           0           0           0
           0           0           0           0           0           0
           0           0           0           0           0           0
           0           0           0           0           0           0
           0           0           0           0
Num RLSW                                   I               52
RLSW                                       R   N=          52
  8.00000000E-01  7.20000000E-01  1.00000000E+00  8.10000000E-01  2.00000000E-01
  0.00000000E+00  0.00000000E+00  1.00000000E+00  0.00000000E+00  0.00000000E+00
  0.00000000E+00  0.00000000E+00  1.00000000E+00  0.00000000E+00  0.00000000E+00
  0.00000000E+00  0.00000000E+00  1.00000000E+00  0.00000000E+00  0.00000000E+00
  0.00000000E+00  0.00000000E+00  1.00000000E+00  0.00000000E+00  0.00000000E+00
  0.00000000E+00  0.00000000E+00  1.00000000E+00  0.00000000E+00  0.00000000E+00
  0.00000000E+00  0.00000000E+00  1.00000000E+00  0.00000000E+00  0.00000000E+00
  0.00000000E+00  0.00000000E+00  0.00000000E+00  1.00000000E+00  1.00000000E+00
  0.00000000E+00  1.00000000E+00  0.00000000E+00  0.00000000E+00  0.00000000E+00
  0.00000000E+00  0.00000000E+00  0.00000000E+00  0.00000000E+00  0.00000000E+00
  0.00000000E+00  0.00000000E+00
MxBond                                     I                4
NBond                                      I   N=          17
           4           4           4           4           4           1
           1           1           1           1           1           1
           1           1           1           1           1
IBond                                      I   N=          68
           2           6           7           8           1           3
           4           5           2           9          10          11
           2          12          13          14           2          15
          16          17           1           0           0           0
           1           0           0           0           1           0
           0           0           3           0           0           0
           3           0           0           0           3           0
           0           0           4           0           0           0
           4           0           0           0           4           0
           0           0           5           0           0           0
           5           0           0           0           5           0
           0           0
RBond                                      R   N=          68
  1.00000000E+00  1.00000000E+00  1.00000000E+00  1.00000000E+00  1.00000000E+00
  1.00000000E+00  1.00000000E+00  1.00000000E+00  1.00000000E+00  1.00000000E+00
  1.00000000E+00  1.00000000E+00  1.00000000E+00  1.00000000E+00  1.00000000E+00
  1.00000000E+00  1.00000000E+00  1.00000000E+00  1.00000000E+00  1.00000000E+00
  1.00000000E+00  0.00000000E+00  0.00000000E+00  0.00000000E+00  1.00000000E+00
  0.00000000E+00  0.00000000E+00  0.00000000E+00  1.00000000E+00  0.00000000E+00
  0.00000000E+00  0.00000000E+00  1.00000000E+00  0.00000000E+00  0.00000000E+00
  0.00000000E+00  1.00000000E+00  0.00000000E+00  0.00000000E+00  0.00000000E+00
  1.00000000E+00  0.00000000E+00  0.00000000E+00  0.00000000E+00  1.00000000E+00
  0.00000000E+00  0.00000000E+00  0.00000000E+00  1.00000000E+00  0.00000000E+00
  0.00000000E+00  0.00000000E+00  1.00000000E+00  0.00000000E+00  0.00000000E+00
  0.00000000E+00  1.00000000E+00  0.00000000E+00  0.00000000E+00  0.00000000E+00
  1.00000000E+00  0.00000000E+00  0.00000000E+00  0.00000000E+00  1.00000000E+00
  0.00000000E+00  0.00000000E+00  0.00000000E+00
Virial Ratio                               R      2.010395259110111E+00
SCF Energy                                 R     -1.977729651566360E+02
Total Energy                               R     -1.977729651566360E+02
RMS Density                                R      4.592521564793066E-09
Job Status                                 I                1
Nuclear derivative order                   I                0
External E-field                           R   N=          35
  0.00000000E+00  0.00000000E+00  0.00000000E+00  0.00000000E+00  0.00000000E+00
  0.00000000E+00  0.00000000E+00  0.00000000E+00  0.00000000E+00  0.00000000E+00
  0.00000000E+00  0.00000000E+00  0.00000000E+00  0.00000000E+00  0.00000000E+00
  0.00000000E+00  0.00000000E+00  0.00000000E+00  0.00000000E+00  0.00000000E+00
  0.00000000E+00  0.00000000E+00  0.00000000E+00  0.00000000E+00  0.00000000E+00
  0.00000000E+00  0.00000000E+00  0.00000000E+00  0.00000000E+00  0.00000000E+00
  0.00000000E+00  0.00000000E+00  0.00000000E+00  0.00000000E+00  0.00000000E+00
IOpCl                                      I                0
IROHF                                      I                0
Alpha Orbital Energies                     R   N=          99
 -1.01916671E+01 -1.01676097E+01 -1.01676093E+01 -1.01676079E+01 -1.01675920E+01
 -8.12953023E-01 -6.77510981E-01 -6.77505559E-01 -6.77504015E-01 -5.27138375E-01
 -4.41522522E-01 -4.41519797E-01 -4.41515374E-01 -3.94733902E-01 -3.94730854E-01
 -3.58535634E-01 -3.58533223E-01 -3.58532504E-01 -3.14716326E-01 -3.14705776E-01
 -3.14704227E-01  7.55335876E-02  1.39408988E-01  1.39409208E-01  1.39412773E-01
  1.64750264E-01  1.64752170E-01  1.64757025E-01  1.79616763E-01  1.79621610E-01
  2.19319980E-01  2.26380370E-01  2.26385366E-01  2.26386428E-01  2.52057297E-01
  2.52060130E-01  2.52068424E-01  5.14569247E-01  5.14574690E-01  5.14576983E-01
  5.16162223E-01  5.16166695E-01  6.22630082E-01  6.56415065E-01  6.56424331E-01
  6.56432809E-01  7.46334613E-01  7.46342733E-01  7.46350157E-01  8.69810427E-01
  8.69815088E-01  8.69817018E-01  9.05502218E-01  9.05529430E-01  9.05534714E-01
  9.09577825E-01  9.27881153E-01  9.27886623E-01  9.27889697E-01  9.53094981E-01
  9.53098279E-01  9.54085643E-01  9.92327642E-01  9.92328281E-01  9.92334324E-01
  1.40516561E+00  1.40517471E+00  1.48908258E+00  1.48910619E+00  1.48913170E+00
  1.70054906E+00  1.73380474E+00  1.73381063E+00  1.73381452E+00  1.87016757E+00
  1.87018173E+00  1.87021070E+00  2.08869555E+00  2.08872122E+00  2.11092691E+00
  2.11094026E+00  2.11094498E+00  2.24573868E+00  2.24870370E+00  2.24871178E+00
  2.24872243E+00  2.26950895E+00  2.26951588E+00  2.26952237E+00  2.59050382E+00
  2.59053072E+00  2.71482845E+00  2.71483347E+00  2.71484299E+00  4.16250763E+00
  4.31213313E+00  4.31214027E+00  4.31214659E+00  4.66568305E+00
Alpha MO coefficients                      R   N=        9801
  4.21675737E-03 -5.08922638E-05  5.34212349E-09  1.22051093E-08  8.02509908E-05
  5.82085985E-03 -1.10085809E-08 -5.01184896E-08  2.52949816E-03 -1.07720845E-04
 -1.07719258E-04 -4.19862703E-04  1.29795699E-09  1.66586151E-09 -4.48768275E-10
  9.93344047E-01  5.05542905E-02  3.91007138E-08  2.67934609E-08 -4.42160432E-09
 -2.64010041E-02 -1.04538279E-07 -1.89972906E-07 -2.39631643E-07 -8.33461157E-03
 -8.33461365E-03 -8.33455829E-03  1.68923398E-08 -9.97309627E-09 -1.21636911E-08
  4.21585858E-03 -5.09384109E-05  2.19842574E-05 -7.24787142E-05 -2.67648627E-05
  5.82093948E-03  6.92177146E-04 -2.28217868E-03 -8.43213900E-04 -1.31081513E-04
 -3.61759427E-04 -1.42395988E-04  8.89584076E-05  3.28662357E-05 -1.08374974E-04
  4.21601804E-03 -5.09287047E-05 -7.37503636E-05  1.71986389E-05 -2.67693202E-05
  5.82089562E-03 -2.32249481E-03  5.41709303E-04 -8.43118560E-04 -3.70820140E-04
 -1.22024685E-04 -1.42401958E-04  7.08408029E-05 -1.10295404E-04  2.57233940E-05
  4.21603597E-03 -5.09485131E-05  5.17482941E-05  5.52393945E-05 -2.67556322E-05
  5.82095229E-03  1.63036965E-03  1.74049049E-03 -8.43330586E-04 -2.37381771E-04
 -2.55480332E-04 -1.42420102E-04 -1.59829622E-04  7.74453683E-05  8.26734710E-05
 -1.91738854E-04 -1.49853201E-04 -1.91724876E-04 -1.49842545E-04 -1.91725446E-04
 -1.49918631E-04 -1.91726244E-04 -1.49916450E-04 -1.91740431E-04 -1.49860868E-04
 -1.91741333E-04 -1.49941369E-04 -1.91734777E-04 -1.49943766E-04 -1.91746649E-04
 -1.49831574E-04 -1.91738458E-04 -1.49926767E-04 -1.91741816E-04 -1.49892350E-04
 -1.91708834E-04 -1.49921320E-04 -1.91730274E-04 -1.49890568E-04 -5.33066835E-01
 -2.70655401E-02 -1.08576412E-04  4.04264385E-05 -6.13426903E-05  9.60207852E-03
  6.61759268E-04 -2.46331153E-04  6.50780297E-04  4.83944329E-03  4.77774784E-03
  4.90735250E-03 -1.22461890E-05  4.11139163E-05 -1.53174254E-05 -1.35542897E-04
 -6.20679933E-06 -2.76526822E-05  1.03297769E-05 -2.38889662E-05  7.54519632E-05
  1.41240911E-03 -5.26581576E-04  1.21924750E-03 -1.43361170E-04  2.97442357E-05
  1.00220557E-04  3.43163968E-05 -7.00187184E-05  2.60901643E-05 -1.94117555E-01
 -9.86186149E-03 -1.05489237E-04  3.03058736E-05 -9.74151749E-05  3.51687484E-03
  6.70074938E-04 -2.73979842E-04  5.60738877E-04  1.80315525E-03  1.77917171E-03
  1.70239673E-03 -4.23491652E-05  1.82702581E-05 -2.97540861E-06  8.13116358E-01
  4.12610169E-02 -6.11296754E-05  2.94068742E-05 -7.64790411E-05 -1.45659936E-02
  7.67758498E-04 -2.71288723E-04  6.09621766E-04 -7.45435884E-03 -7.33728066E-03
 -7.38093701E-03  4.09729825E-05 -6.20759848E-05  1.17651641E-05 -5.52344583E-02
 -2.81275818E-03 -1.06902112E-04  4.21745043E-05 -9.45733294E-05  1.02334670E-03
  6.68157623E-04 -2.39326831E-04  5.67776377E-04  5.67425416E-04  4.81394187E-04
  4.49931142E-04  2.72112538E-06  2.47947583E-05 -1.68095096E-06  4.71116900E-05
 -1.01966269E-03 -3.74957967E-05 -1.68431362E-03 -5.10629870E-05 -1.79032506E-03
  6.57860321E-05  1.75497492E-05 -6.53904268E-05 -1.01244729E-03 -1.88219795E-05
 -6.46899682E-04  3.67057852E-05  2.43541420E-03  2.31035112E-05  2.32925651E-03
 -9.88645090E-06  2.06982012E-03 -2.47196141E-05 -3.28137946E-04 -5.77260237E-05
 -5.87569866E-04  7.34536105E-05  4.42564146E-04 -6.21168155E-01 -3.15176716E-02
  5.95695530E-05 -8.58650641E-05 -6.64339626E-05  1.11169157E-02 -3.63143866E-04
  5.23450193E-04  7.34737510E-04  5.58122648E-03  5.63786044E-03  5.72172762E-03
 -9.28317734E-06 -2.25777866E-05  3.25475384E-05  1.50455662E-04  6.90888400E-06
  1.51405727E-05 -2.18458897E-05 -2.70847920E-05 -8.34397063E-05 -7.74880763E-04
  1.11739205E-03  1.38170790E-03  2.50422802E-05 -1.33821643E-04  1.23532706E-04
  2.60472933E-05  3.84373252E-05 -5.54136705E-05  7.37062070E-01  3.74203748E-02
  4.72462316E-05 -4.53000689E-05 -9.12029404E-05 -1.32674427E-02 -3.93040311E-04
  6.22288348E-04  6.83676185E-04 -6.64864738E-03 -6.74089847E-03 -6.69517544E-03
  5.35635170E-05  1.25543027E-05 -6.12958992E-05 -2.26081792E-01 -1.14646782E-02
  4.57333116E-05 -8.26888854E-05 -1.11178304E-04  4.02339957E-03 -3.90724357E-04
  5.30100069E-04  6.36967156E-04  2.08744873E-03  2.09268108E-03  1.99053310E-03
 -3.48984293E-05 -6.62120603E-06  1.45378123E-05  7.63383613E-02  3.88480553E-03
  5.71706386E-05 -8.84966298E-05 -1.04871334E-04 -1.40542237E-03 -3.72139933E-04
  5.14309744E-04  6.51291462E-04 -7.08624853E-04 -6.28008134E-04 -7.36703406E-04
 -1.75705592E-05  4.48912274E-06  3.17650089E-05 -5.32169434E-05 -2.06216944E-03
 -2.37622528E-05 -1.83089992E-03  4.06102914E-05 -1.32521902E-03  2.16340863E-05
  2.09422176E-03 -1.69049231E-05  1.79190471E-03  5.10710441E-05  2.32570143E-03
 -1.98128424E-06 -6.21818885E-04  6.23958085E-05 -1.16109114E-04 -6.99410494E-05
 -1.15548191E-03  7.90412092E-05  8.09317970E-04 -5.33251016E-05 -2.29871635E-04
 -1.47836486E-05  7.20543387E-05 -2.94303500E-01 -1.49049224E-02  8.25524274E-05
  1.14792305E-04 -2.48510526E-05  5.17143617E-03 -5.03063632E-04 -6.99519357E-04
  3.16800247E-04  2.66851123E-03  2.66341715E-03  2.71526007E-03  4.58800281E-05
 -3.12607752E-05 -4.34572117E-05  4.78295337E-04  2.19077036E-05  2.10412087E-05
  2.92383709E-05 -1.17789404E-05 -2.65663210E-04 -1.07473873E-03 -1.49374008E-03
  6.02510230E-04 -1.72986954E-05 -3.06452520E-06  6.74530476E-05 -1.28707017E-04
  5.32707148E-05  7.40292019E-05 -4.05138370E-01 -2.05304927E-02  9.03283086E-05
  8.91383140E-05 -5.58025288E-05  7.16175964E-03 -4.89292173E-04 -7.45417485E-04
  2.65550353E-04  3.66609642E-03  3.76142741E-03  3.64102885E-03  2.61174262E-05
 -2.26618733E-05  4.98626104E-06 -2.33614488E-01 -1.18246204E-02  6.63042096E-05
  1.18551342E-04 -5.22367447E-05  4.08221655E-03 -5.27012885E-04 -6.93877766E-04
  2.73804004E-04  2.18485122E-03  2.11372423E-03  2.09422531E-03  4.74984730E-05
 -3.42553597E-06 -2.33723994E-05  8.25058790E-01  4.19092729E-02  5.14624259E-05
  8.15726470E-05 -3.01953858E-05 -1.49245642E-02 -5.85861084E-04 -7.87941983E-04
  3.24970040E-04 -7.49508838E-03 -7.51870055E-03 -7.45302218E-03 -7.88716747E-05